 Entering Gaussian System, Link 0=g16
 Input=sub_89-05-4.gjf
 Output=sub_89-05-4.log
 Initial command:
 /apps/t4/rhel9/isv/gaussian/G16C02/g16/l1.exe "/local/5761438/Gau-31068.inp" -scrdir="/local/5761438/"
 Default CPUs for threads: 4-7
 Default is to use a total of   4 processors:
                                4 via shared-memory
                                1 via Linda
 Entering Link 1 = /apps/t4/rhel9/isv/gaussian/G16C02/g16/l1.exe PID=     31069.
  
 Copyright (c) 1988-2021, Gaussian, Inc.  All Rights Reserved.
  
 This is part of the Gaussian(R) 16 program.  It is based on
 the Gaussian(R) 09 system (copyright 2009, Gaussian, Inc.),
 the Gaussian(R) 03 system (copyright 2003, Gaussian, Inc.),
 the Gaussian(R) 98 system (copyright 1998, Gaussian, Inc.),
 the Gaussian(R) 94 system (copyright 1995, Gaussian, Inc.),
 the Gaussian 92(TM) system (copyright 1992, Gaussian, Inc.),
 the Gaussian 90(TM) system (copyright 1990, Gaussian, Inc.),
 the Gaussian 88(TM) system (copyright 1988, Gaussian, Inc.),
 the Gaussian 86(TM) system (copyright 1986, Carnegie Mellon
 University), and the Gaussian 82(TM) system (copyright 1983,
 Carnegie Mellon University). Gaussian is a federally registered
 trademark of Gaussian, Inc.
  
 This software contains proprietary and confidential information,
 including trade secrets, belonging to Gaussian, Inc.
  
 This software is provided under written license and may be
 used, copied, transmitted, or stored only in accord with that
 written license.
  
 The following legend is applicable only to US Government
 contracts under FAR:
  
                    RESTRICTED RIGHTS LEGEND
  
 Use, reproduction and disclosure by the US Government is
 subject to restrictions as set forth in subparagraphs (a)
 and (c) of the Commercial Computer Software - Restricted
 Rights clause in FAR 52.227-19.
  
 Gaussian, Inc.
 340 Quinnipiac St., Bldg. 40, Wallingford CT 06492
  
  
 ---------------------------------------------------------------
 Warning -- This program may not be used in any manner that
 competes with the business of Gaussian, Inc. or will provide
 assistance to any competitor of Gaussian, Inc.  The licensee
 of this program is prohibited from giving any competitor of
 Gaussian, Inc. access to this program.  By using this program,
 the user acknowledges that Gaussian, Inc. is engaged in the
 business of creating and licensing software in the field of
 computational chemistry and represents and warrants to the
 licensee that it is not a competitor of Gaussian, Inc. and that
 it will not use this program in any manner prohibited above.
 ---------------------------------------------------------------
  

 Cite this work as:
 Gaussian 16, Revision C.02,
 M. J. Frisch, G. W. Trucks, H. B. Schlegel, G. E. Scuseria, 
 M. A. Robb, J. R. Cheeseman, G. Scalmani, V. Barone, 
 G. A. Petersson, H. Nakatsuji, X. Li, M. Caricato, A. V. Marenich, 
 J. Bloino, B. G. Janesko, R. Gomperts, B. Mennucci, H. P. Hratchian, 
 J. V. Ortiz, A. F. Izmaylov, J. L. Sonnenberg, D. Williams-Young, 
 F. Ding, F. Lipparini, F. Egidi, J. Goings, B. Peng, A. Petrone, 
 T. Henderson, D. Ranasinghe, V. G. Zakrzewski, J. Gao, N. Rega, 
 G. Zheng, W. Liang, M. Hada, M. Ehara, K. Toyota, R. Fukuda, 
 J. Hasegawa, M. Ishida, T. Nakajima, Y. Honda, O. Kitao, H. Nakai, 
 T. Vreven, K. Throssell, J. A. Montgomery, Jr., J. E. Peralta, 
 F. Ogliaro, M. J. Bearpark, J. J. Heyd, E. N. Brothers, K. N. Kudin, 
 V. N. Staroverov, T. A. Keith, R. Kobayashi, J. Normand, 
 K. Raghavachari, A. P. Rendell, J. C. Burant, S. S. Iyengar, 
 J. Tomasi, M. Cossi, J. M. Millam, M. Klene, C. Adamo, R. Cammi, 
 J. W. Ochterski, R. L. Martin, K. Morokuma, O. Farkas, 
 J. B. Foresman, and D. J. Fox, Gaussian, Inc., Wallingford CT, 2019.
 
 ******************************************
 Gaussian 16:  ES64L-G16RevC.02  7-Dec-2021
                25-Nov-2025 
 ******************************************
 %mem=4GB
 %chk=sub_89-05-4.chk
 SetSPE:  set environment variable "OMP_PROC_BIND" = "true"
 SetSPE:  set environment variable "OMP_PLACES" = "{4},{5},{6},{7}"
 ------------------------------------------------------------
 #p opt freq rcam-b3lyp/6-311+g(d,p) scrf=(smd,solvent=water)
 ------------------------------------------------------------
 1/18=20,19=15,26=3,38=1/1,3;
 2/9=110,12=2,17=6,18=5,40=1/2;
 3/5=4,6=6,7=111,11=2,25=1,30=1,70=32201,71=1,72=1,74=-40,116=1/1,2,3;
 4//1;
 5/5=2,38=5,53=1/2;
 6/7=2,8=2,9=2,10=2,28=1/1;
 7//1,2,3,16;
 1/18=20,19=15,26=3/3(2);
 2/9=110/2;
 99//99;
 2/9=110/2;
 3/5=4,6=6,7=111,11=2,25=1,30=1,70=32205,71=1,72=1,74=-40,116=1/1,2,3;
 4/5=5,16=3,69=1/1;
 5/5=2,38=5,53=1/2;
 7//1,2,3,16;
 1/18=20,19=15,26=3/3(-5);
 2/9=110/2;
 6/7=2,8=2,9=2,10=2,19=2,28=1/1;
 99/9=1/99;
 Leave Link    1 at Tue Nov 25 03:43:29 2025, MaxMem=   536870912 cpu:               0.0 elap:               0.0
 (Enter /apps/t4/rhel9/isv/gaussian/G16C02/g16/l101.exe)
 -------
 no comm
 -------
 Symbolic Z-matrix:
 Charge =  0 Multiplicity = 1
 O                    -5.0014    0.79429  -0.01909 
 C                    -4.27495  -0.11037  -0.51259 
 O                    -4.84757  -1.06667  -1.34685 
 C                    -2.81627  -0.11686  -0.25261 
 C                    -2.15505   1.11764  -0.14808 
 C                    -0.76983   1.16987   0. 
 C                    -0.19161   2.53008  -0.17891 
 O                    -0.56609   3.50793   0.42972 
 O                     0.74543   2.57909  -1.1268 
 C                     0.        0.        0. 
 C                    -0.66506  -1.23547  -0.05952 
 C                    -2.06283  -1.31341  -0.16176 
 C                    -2.68877  -2.65558  -0.11465 
 O                    -3.80543  -2.82398   0.44522 
 O                    -2.0161   -3.75532  -0.64087 
 C                     1.48879   0.        0. 
 O                     2.1636   -0.78059  -0.63416 
 O                     2.01144   0.91204   0.82097 
 H                    -5.84141  -1.05812  -1.54275 
 H                    -2.73481   2.03329  -0.18256 
 H                     1.0995    3.48256  -1.18285 
 H                    -0.08467  -2.15063  -0.02541 
 H                    -2.42203  -4.68249  -0.5984 
 H                     2.98112   0.87964   0.76238 
 
 ITRead=  0  0  0  0  0  0  0  0  0  0  0  0  0  0  0  0  0  0  0  0
 ITRead=  0  0  0  0
 MicOpt= -1 -1 -1 -1 -1 -1 -1 -1 -1 -1 -1 -1 -1 -1 -1 -1 -1 -1 -1 -1
 MicOpt= -1 -1 -1 -1
 NAtoms=     24 NQM=       24 NQMF=       0 NMMI=      0 NMMIF=      0
                NMic=       0 NMicF=      0.
                    Isotopes and Nuclear Properties:
 (Nuclear quadrupole moments (NQMom) in fm**2, nuclear magnetic moments (NMagM)
  in nuclear magnetons)

  Atom         1           2           3           4           5           6           7           8           9          10
 IAtWgt=          16          12          16          12          12          12          12          16          16          12
 AtmWgt=  15.9949146  12.0000000  15.9949146  12.0000000  12.0000000  12.0000000  12.0000000  15.9949146  15.9949146  12.0000000
 NucSpn=           0           0           0           0           0           0           0           0           0           0
 AtZEff=  -0.0000000  -0.0000000  -0.0000000  -0.0000000  -0.0000000  -0.0000000  -0.0000000  -0.0000000  -0.0000000  -0.0000000
 NQMom=    0.0000000   0.0000000   0.0000000   0.0000000   0.0000000   0.0000000   0.0000000   0.0000000   0.0000000   0.0000000
 NMagM=    0.0000000   0.0000000   0.0000000   0.0000000   0.0000000   0.0000000   0.0000000   0.0000000   0.0000000   0.0000000
 AtZNuc=   8.0000000   6.0000000   8.0000000   6.0000000   6.0000000   6.0000000   6.0000000   8.0000000   8.0000000   6.0000000

  Atom        11          12          13          14          15          16          17          18          19          20
 IAtWgt=          12          12          12          16          16          12          16          16           1           1
 AtmWgt=  12.0000000  12.0000000  12.0000000  15.9949146  15.9949146  12.0000000  15.9949146  15.9949146   1.0078250   1.0078250
 NucSpn=           0           0           0           0           0           0           0           0           1           1
 AtZEff=  -0.0000000  -0.0000000  -0.0000000  -0.0000000  -0.0000000  -0.0000000  -0.0000000  -0.0000000  -0.0000000  -0.0000000
 NQMom=    0.0000000   0.0000000   0.0000000   0.0000000   0.0000000   0.0000000   0.0000000   0.0000000   0.0000000   0.0000000
 NMagM=    0.0000000   0.0000000   0.0000000   0.0000000   0.0000000   0.0000000   0.0000000   0.0000000   2.7928460   2.7928460
 AtZNuc=   6.0000000   6.0000000   6.0000000   8.0000000   8.0000000   6.0000000   8.0000000   8.0000000   1.0000000   1.0000000

  Atom        21          22          23          24
 IAtWgt=           1           1           1           1
 AtmWgt=   1.0078250   1.0078250   1.0078250   1.0078250
 NucSpn=           1           1           1           1
 AtZEff=  -0.0000000  -0.0000000  -0.0000000  -0.0000000
 NQMom=    0.0000000   0.0000000   0.0000000   0.0000000
 NMagM=    2.7928460   2.7928460   2.7928460   2.7928460
 AtZNuc=   1.0000000   1.0000000   1.0000000   1.0000000
 Leave Link  101 at Tue Nov 25 03:43:29 2025, MaxMem=   536870912 cpu:               0.1 elap:               0.1
 (Enter /apps/t4/rhel9/isv/gaussian/G16C02/g16/l103.exe)

 GradGradGradGradGradGradGradGradGradGradGradGradGradGradGradGradGradGrad
 Berny optimization.
 Initialization pass.
                           ----------------------------
                           !    Initial Parameters    !
                           ! (Angstroms and Degrees)  !
 --------------------------                            --------------------------
 ! Name  Definition              Value          Derivative Info.                !
 --------------------------------------------------------------------------------
 ! R1    R(1,2)                  1.2608         estimate D2E/DX2                !
 ! R2    R(2,3)                  1.3923         estimate D2E/DX2                !
 ! R3    R(2,4)                  1.4817         estimate D2E/DX2                !
 ! R4    R(3,19)                 1.013          estimate D2E/DX2                !
 ! R5    R(4,5)                  1.4043         estimate D2E/DX2                !
 ! R6    R(4,12)                 1.4169         estimate D2E/DX2                !
 ! R7    R(5,6)                  1.3941         estimate D2E/DX2                !
 ! R8    R(5,20)                 1.0843         estimate D2E/DX2                !
 ! R9    R(6,7)                  1.4888         estimate D2E/DX2                !
 ! R10   R(6,10)                 1.4004         estimate D2E/DX2                !
 ! R11   R(7,8)                  1.2111         estimate D2E/DX2                !
 ! R12   R(7,9)                  1.3338         estimate D2E/DX2                !
 ! R13   R(9,21)                 0.972          estimate D2E/DX2                !
 ! R14   R(10,11)                1.4044         estimate D2E/DX2                !
 ! R15   R(10,16)                1.4888         estimate D2E/DX2                !
 ! R16   R(11,12)                1.4037         estimate D2E/DX2                !
 ! R17   R(11,22)                1.0842         estimate D2E/DX2                !
 ! R18   R(12,13)                1.4817         estimate D2E/DX2                !
 ! R19   R(13,14)                1.2605         estimate D2E/DX2                !
 ! R20   R(13,15)                1.3924         estimate D2E/DX2                !
 ! R21   R(15,23)                1.013          estimate D2E/DX2                !
 ! R22   R(16,17)                1.2111         estimate D2E/DX2                !
 ! R23   R(16,18)                1.3338         estimate D2E/DX2                !
 ! R24   R(18,24)                0.972          estimate D2E/DX2                !
 ! A1    A(1,2,3)              119.3667         estimate D2E/DX2                !
 ! A2    A(1,2,4)              120.1121         estimate D2E/DX2                !
 ! A3    A(3,2,4)              120.4667         estimate D2E/DX2                !
 ! A4    A(2,3,19)             120.9037         estimate D2E/DX2                !
 ! A5    A(2,4,5)              118.2128         estimate D2E/DX2                !
 ! A6    A(2,4,12)             122.5775         estimate D2E/DX2                !
 ! A7    A(5,4,12)             119.1571         estimate D2E/DX2                !
 ! A8    A(4,5,6)              120.5768         estimate D2E/DX2                !
 ! A9    A(4,5,20)             119.2231         estimate D2E/DX2                !
 ! A10   A(6,5,20)             120.2001         estimate D2E/DX2                !
 ! A11   A(5,6,7)              114.0403         estimate D2E/DX2                !
 ! A12   A(5,6,10)             120.9914         estimate D2E/DX2                !
 ! A13   A(7,6,10)             123.3471         estimate D2E/DX2                !
 ! A14   A(6,7,8)              123.8604         estimate D2E/DX2                !
 ! A15   A(6,7,9)              113.0686         estimate D2E/DX2                !
 ! A16   A(8,7,9)              123.004          estimate D2E/DX2                !
 ! A17   A(7,9,21)             109.3325         estimate D2E/DX2                !
 ! A18   A(6,10,11)            118.3317         estimate D2E/DX2                !
 ! A19   A(6,10,16)            123.3468         estimate D2E/DX2                !
 ! A20   A(11,10,16)           118.266          estimate D2E/DX2                !
 ! A21   A(10,11,12)           121.5681         estimate D2E/DX2                !
 ! A22   A(10,11,22)           119.1916         estimate D2E/DX2                !
 ! A23   A(12,11,22)           119.2403         estimate D2E/DX2                !
 ! A24   A(4,12,11)            119.1627         estimate D2E/DX2                !
 ! A25   A(4,12,13)            122.8438         estimate D2E/DX2                !
 ! A26   A(11,12,13)           117.947          estimate D2E/DX2                !
 ! A27   A(12,13,14)           120.6241         estimate D2E/DX2                !
 ! A28   A(12,13,15)           119.9555         estimate D2E/DX2                !
 ! A29   A(14,13,15)           119.3621         estimate D2E/DX2                !
 ! A30   A(13,15,23)           120.8934         estimate D2E/DX2                !
 ! A31   A(10,16,17)           123.8603         estimate D2E/DX2                !
 ! A32   A(10,16,18)           113.0701         estimate D2E/DX2                !
 ! A33   A(17,16,18)           123.0027         estimate D2E/DX2                !
 ! A34   A(16,18,24)           109.3314         estimate D2E/DX2                !
 ! D1    D(1,2,3,19)            -1.5458         estimate D2E/DX2                !
 ! D2    D(4,2,3,19)          -178.8631         estimate D2E/DX2                !
 ! D3    D(1,2,4,5)            -34.8236         estimate D2E/DX2                !
 ! D4    D(1,2,4,12)           147.8361         estimate D2E/DX2                !
 ! D5    D(3,2,4,5)            142.4738         estimate D2E/DX2                !
 ! D6    D(3,2,4,12)           -34.8666         estimate D2E/DX2                !
 ! D7    D(2,4,5,6)           -175.3814         estimate D2E/DX2                !
 ! D8    D(2,4,5,20)             4.695          estimate D2E/DX2                !
 ! D9    D(12,4,5,6)             2.0523         estimate D2E/DX2                !
 ! D10   D(12,4,5,20)         -177.8713         estimate D2E/DX2                !
 ! D11   D(2,4,12,11)          173.0875         estimate D2E/DX2                !
 ! D12   D(2,4,12,13)           -9.445          estimate D2E/DX2                !
 ! D13   D(5,4,12,11)           -4.2287         estimate D2E/DX2                !
 ! D14   D(5,4,12,13)          173.2388         estimate D2E/DX2                !
 ! D15   D(4,5,6,7)            168.2658         estimate D2E/DX2                !
 ! D16   D(4,5,6,10)             2.3135         estimate D2E/DX2                !
 ! D17   D(20,5,6,7)           -11.8114         estimate D2E/DX2                !
 ! D18   D(20,5,6,10)         -177.7636         estimate D2E/DX2                !
 ! D19   D(5,6,7,8)             53.5485         estimate D2E/DX2                !
 ! D20   D(5,6,7,9)           -123.5475         estimate D2E/DX2                !
 ! D21   D(10,6,7,8)          -140.8752         estimate D2E/DX2                !
 ! D22   D(10,6,7,9)            42.0288         estimate D2E/DX2                !
 ! D23   D(5,6,10,11)           -4.3578         estimate D2E/DX2                !
 ! D24   D(5,6,10,16)          172.8821         estimate D2E/DX2                !
 ! D25   D(7,6,10,11)         -168.9691         estimate D2E/DX2                !
 ! D26   D(7,6,10,16)            8.2709         estimate D2E/DX2                !
 ! D27   D(6,7,9,21)          -178.6377         estimate D2E/DX2                !
 ! D28   D(8,7,9,21)             4.2378         estimate D2E/DX2                !
 ! D29   D(6,10,11,12)           2.1004         estimate D2E/DX2                !
 ! D30   D(6,10,11,22)        -177.8839         estimate D2E/DX2                !
 ! D31   D(16,10,11,12)       -175.2819         estimate D2E/DX2                !
 ! D32   D(16,10,11,22)          4.7337         estimate D2E/DX2                !
 ! D33   D(6,10,16,17)        -140.9093         estimate D2E/DX2                !
 ! D34   D(6,10,16,18)          41.9917         estimate D2E/DX2                !
 ! D35   D(11,10,16,17)         36.3324         estimate D2E/DX2                !
 ! D36   D(11,10,16,18)       -140.7666         estimate D2E/DX2                !
 ! D37   D(10,11,12,4)           2.1702         estimate D2E/DX2                !
 ! D38   D(10,11,12,13)       -175.4213         estimate D2E/DX2                !
 ! D39   D(22,11,12,4)        -177.8454         estimate D2E/DX2                !
 ! D40   D(22,11,12,13)          4.5631         estimate D2E/DX2                !
 ! D41   D(4,12,13,14)         -33.0411         estimate D2E/DX2                !
 ! D42   D(4,12,13,15)         149.7519         estimate D2E/DX2                !
 ! D43   D(11,12,13,14)        144.4554         estimate D2E/DX2                !
 ! D44   D(11,12,13,15)        -32.7515         estimate D2E/DX2                !
 ! D45   D(12,13,15,23)        178.6784         estimate D2E/DX2                !
 ! D46   D(14,13,15,23)          1.4361         estimate D2E/DX2                !
 ! D47   D(10,16,18,24)       -178.6339         estimate D2E/DX2                !
 ! D48   D(17,16,18,24)          4.2385         estimate D2E/DX2                !
 --------------------------------------------------------------------------------
 Trust Radius=3.00D-01 FncErr=1.00D-07 GrdErr=1.00D-06 EigMax=2.50D+02 EigMin=1.00D-04
 Number of steps in this run=    116 maximum allowed number of steps=    144.
 GradGradGradGradGradGradGradGradGradGradGradGradGradGradGradGradGradGrad

 Leave Link  103 at Tue Nov 25 03:43:29 2025, MaxMem=   536870912 cpu:               0.0 elap:               0.0
 (Enter /apps/t4/rhel9/isv/gaussian/G16C02/g16/l202.exe)
                          Input orientation:                          
 ---------------------------------------------------------------------
 Center     Atomic      Atomic             Coordinates (Angstroms)
 Number     Number       Type             X           Y           Z
 ---------------------------------------------------------------------
      1          8           0       -5.001404    0.794288   -0.019092
      2          6           0       -4.274948   -0.110373   -0.512591
      3          8           0       -4.847572   -1.066670   -1.346845
      4          6           0       -2.816271   -0.116861   -0.252613
      5          6           0       -2.155048    1.117642   -0.148083
      6          6           0       -0.769832    1.169874    0.000000
      7          6           0       -0.191608    2.530078   -0.178906
      8          8           0       -0.566088    3.507927    0.429725
      9          8           0        0.745428    2.579090   -1.126805
     10          6           0        0.000000    0.000000    0.000000
     11          6           0       -0.665056   -1.235467   -0.059524
     12          6           0       -2.062829   -1.313409   -0.161764
     13          6           0       -2.688773   -2.655580   -0.114647
     14          8           0       -3.805434   -2.823983    0.445225
     15          8           0       -2.016099   -3.755321   -0.640866
     16          6           0        1.488787    0.000000    0.000000
     17          8           0        2.163596   -0.780593   -0.634161
     18          8           0        2.011437    0.912041    0.820966
     19          1           0       -5.841406   -1.058122   -1.542747
     20          1           0       -2.734814    2.033293   -0.182561
     21          1           0        1.099497    3.482561   -1.182846
     22          1           0       -0.084671   -2.150633   -0.025414
     23          1           0       -2.422030   -4.682486   -0.598403
     24          1           0        2.981118    0.879640    0.762380
 ---------------------------------------------------------------------
                    Distance matrix (angstroms):
                    1          2          3          4          5
     1  O    0.000000
     2  C    1.260829   0.000000
     3  O    2.291235   1.392257   0.000000
     4  C    2.378977   1.481679   2.495128   0.000000
     5  C    2.867567   2.476866   3.668506   1.404329   0.000000
     6  C    4.248250   3.766646   4.841909   2.430517   1.394087
     7  C    5.115920   4.874115   5.998223   3.728347   2.418888
     8  O    5.218937   5.266469   6.512622   4.320648   2.927818
     9  O    6.118711   5.728407   6.679942   4.551710   3.392121
    10  C    5.064119   4.306984   5.143027   2.829991   2.432136
    11  C    4.788053   3.808205   4.379398   2.432342   2.786582
    12  C    3.619111   2.542410   3.036460   1.416918   2.432838
    13  C    4.154393   3.025292   2.950146   2.545660   3.810930
    14  O    3.838987   2.915739   2.717667   2.965456   4.314186
    15  O    5.477006   4.290047   3.967933   3.745585   4.899787
    16  C    6.538641   5.787536   6.565152   4.314045   3.814260
    17  O    7.361779   6.474475   7.053101   5.038372   4.742389
    18  O    7.063958   6.507100   7.460610   5.051532   4.282630
    19  H    2.541368   2.100771   1.012994   3.420798   4.502030
    20  H    2.588297   2.660119   3.927985   2.152836   1.084312
    21  H    6.767727   6.499467   7.489327   5.399482   4.153990
    22  H    5.731218   4.685982   5.060274   3.413134   3.870805
    23  H    6.081433   4.934054   4.417867   4.595642   5.823707
    24  H    8.021137   7.433450   8.338185   5.969333   5.221665
                    6          7          8          9         10
     6  C    0.000000
     7  C    1.488793   0.000000
     8  O    2.385931   1.211138   0.000000
     9  O    2.356182   1.333773   2.237318   0.000000
    10  C    1.400446   2.543623   3.579200   2.911539   0.000000
    11  C    2.408358   3.797070   4.769586   4.204688   1.404358
    12  C    2.804408   4.274828   5.082851   4.895831   2.450811
    13  C    4.281306   5.755955   6.541480   6.341922   3.780840
    14  O    5.036268   6.489626   7.112432   7.237045   4.759667
    15  O    5.120687   6.561129   7.483546   6.927260   4.310197
    16  C    2.543613   3.042537   4.088120   2.911010   1.488787
    17  O    3.579314   4.088373   5.193692   3.679860   2.385924
    18  O    2.911344   2.910532   3.679039   2.859308   2.356201
    19  H    5.750208   6.830480   7.250409   7.535828   6.133654
    20  H    2.154060   2.591275   2.693105   3.647133   3.412743
    21  H    3.200318   1.892636   2.318448   0.971990   3.838782
    22  H    3.390555   4.684448   5.697211   4.926704   2.152449
    23  H    6.110480   7.561207   8.460759   7.939930   5.305657
    24  H    3.838631   3.698128   4.427326   3.384591   3.200321
                   11         12         13         14         15
    11  C    0.000000
    12  C    1.403672   0.000000
    13  C    2.472891   1.481705   0.000000
    14  O    3.555295   2.384731   1.260455   0.000000
    15  O    2.917694   2.488906   1.392417   2.291004   0.000000
    16  C    2.483739   3.790143   4.951490   6.016799   5.176617
    17  O    2.922053   4.285991   5.227902   6.400768   5.130195
    18  O    3.542692   4.745316   5.974552   6.923513   6.335792
    19  H    5.387578   4.031120   3.811880   3.348951   4.766680
    20  H    3.870895   3.413563   4.689591   5.013329   5.851038
    21  H    5.160939   5.834744   7.291695   8.153616   7.898583
    22  H    1.084223   2.152357   2.654106   3.810377   2.585385
    23  H    3.906314   3.416191   2.100838   2.541062   1.013025
    24  H    4.294623   5.577177   6.739037   7.737874   6.958745
                   16         17         18         19         20
    16  C    0.000000
    17  O    1.211138   0.000000
    18  O    1.333779   2.237311   0.000000
    19  H    7.565144   8.061179   8.434205   0.000000
    20  H    4.691099   5.667127   4.979074   4.588884   0.000000
    21  H    3.698500   4.428075   3.384445   8.302015   4.219348
    22  H    2.664890   2.702275   3.806573   6.052757   4.955117
    23  H    6.130110   6.021131   7.277979   5.071482   6.735907
    24  H    1.892628   2.318415   0.971989   9.322309   5.907259
                   21         22         23         24
    21  H    0.000000
    22  H    5.871523   0.000000
    23  H    8.911269   3.493114   0.000000
    24  H    3.754943   4.382036   7.872928   0.000000
 Stoichiometry    C10H6O8
 Framework group  C1[X(C10H6O8)]
 Deg. of freedom    66
 Full point group                 C1      NOp   1
 Largest Abelian subgroup         C1      NOp   1
 Largest concise Abelian subgroup C1      NOp   1
                         Standard orientation:                         
 ---------------------------------------------------------------------
 Center     Atomic      Atomic             Coordinates (Angstroms)
 Number     Number       Type             X           Y           Z
 ---------------------------------------------------------------------
      1          8           0       -2.504323   -2.707309   -0.387862
      2          6           0       -2.425128   -1.562250    0.133923
      3          8           0       -3.474637   -1.096743    0.921461
      4          6           0       -1.200002   -0.747898   -0.042910
      5          6           0        0.036683   -1.411388   -0.093214
      6          6           0        1.226888   -0.688755   -0.161726
      7          6           0        2.448244   -1.508554    0.067895
      8          8           0        2.708740   -2.518420   -0.547870
      9          8           0        3.203549   -1.052248    1.068019
     10          6           0        1.223022    0.711404   -0.133687
     11          6           0       -0.014924    1.374492   -0.128542
     12          6           0       -1.227245    0.667313   -0.106852
     13          6           0       -2.485605    1.443120   -0.207375
     14          8           0       -3.477504    0.979634   -0.831926
     15          8           0       -2.560504    2.720637    0.341411
     16          6           0        2.462565    1.531696   -0.049188
     17          8           0        2.559447    2.541958    0.611749
     18          8           0        3.445346    1.075309   -0.826889
     19          1           0       -4.308098   -1.655403    1.060736
     20          1           0        0.056784   -2.495427   -0.079448
     21          1           0        3.993256   -1.612035    1.156151
     22          1           0       -0.034263    2.458460   -0.141900
     23          1           0       -3.407193    3.271344    0.263575
     24          1           0        4.231624    1.635434   -0.713801
 ---------------------------------------------------------------------
 Rotational constants (GHZ):           0.6346364           0.3031738           0.2182305
 Leave Link  202 at Tue Nov 25 03:43:30 2025, MaxMem=   536870912 cpu:               0.0 elap:               0.0
 (Enter /apps/t4/rhel9/isv/gaussian/G16C02/g16/l301.exe)
 Standard basis: 6-311+G(d,p) (5D, 7F)
 Ernie: Thresh=  0.10000D-02 Tol=  0.10000D-05 Strict=F.
 There are   450 symmetry adapted cartesian basis functions of A   symmetry.
 There are   432 symmetry adapted basis functions of A   symmetry.
   432 basis functions,   696 primitive gaussians,   450 cartesian basis functions
    65 alpha electrons       65 beta electrons
       nuclear repulsion energy      1299.8750579125 Hartrees.
 IExCor=20419 DFT=T Ex+Corr=CAM-B3LYP ExCW=0 ScaHFX=  1.000000
 ScaDFX=  1.000000  1.000000  1.000000  0.810000 ScalE2=  1.000000  1.000000
 IRadAn=      5 IRanWt=     -1 IRanGd=            0 ICorTp=0 IEmpDi=  4
 HFx  wShort=  0.000000 wLong=  0.330000 cFull=  0.190000 cShort=  0.000000 cLong=  0.460000
 DFx  wShort=  0.000000 wLong=  0.330000 cFull=  0.190000 cShort=  0.000000 cLong=  0.460000
 NAtoms=   24 NActive=   24 NUniq=   24 SFac= 1.00D+00 NAtFMM=   60 NAOKFM=F Big=F
 Integral buffers will be    131072 words long.
 Raffenetti 2 integral format.
 Two-electron integral symmetry is turned on.
 ------------------------------------------------------------------------------
 Polarizable Continuum Model (PCM)
 =================================
 Model                : PCM.
 Atomic radii         : SMD-Coulomb.
 Polarization charges : Total charges.
 Charge compensation  : None.
 Solution method      : On-the-fly selection.
 Cavity type          : VdW (van der Waals Surface) (Alpha=1.000).
 Cavity algorithm     : GePol (No added spheres)
                        Default sphere list used, NSphG=   24.
                        Lebedev-Laikov grids with approx.  5.0 points / Ang**2.
                        Smoothing algorithm: York/Karplus (Gamma=1.0000).
                        Polarization charges: spherical gaussians, with
                                              point-specific exponents (IZeta= 3).
                        Self-potential: point-specific (ISelfS= 7).
                        Self-field    : sphere-specific E.n sum rule (ISelfD= 2).
 1st derivatives      : Analytical E(r).r(x)/FMM algorithm (CHGder, D1EAlg=3).
                        Cavity 1st derivative terms included.
 Solvent              : Water, Eps=  78.355300 Eps(inf)=   1.777849
 ------------------------------------------------------------------------------
 GePol: Number of generator spheres                  =      24
 GePol: Total number of spheres                      =      24
 GePol: Number of exposed spheres                    =      24 (100.00%)
 GePol: Number of points                             =    1880
 GePol: Average weight of points                     =       0.13
 GePol: Minimum weight of points                     =   0.17D-08
 GePol: Maximum weight of points                     =    0.21991
 GePol: Number of points with low weight             =     100
 GePol: Fraction of low-weight points (<1% of avg)   =       5.32%
 GePol: Cavity surface area                          =    236.210 Ang**2
 GePol: Cavity volume                                =    203.931 Ang**3
 ------------------------------------------------------------------------------
 Atomic radii for non-electrostatic terms: SMD-CDS.
 ------------------------------------------------------------------------------
 PCM non-electrostatic energy =         0.0154725506 Hartrees.
 Nuclear repulsion after PCM non-electrostatic terms =     1299.8905304631 Hartrees.
 Leave Link  301 at Tue Nov 25 03:43:30 2025, MaxMem=   536870912 cpu:               0.1 elap:               0.1
 (Enter /apps/t4/rhel9/isv/gaussian/G16C02/g16/l302.exe)
 NPDir=0 NMtPBC=     1 NCelOv=     1 NCel=       1 NClECP=     1 NCelD=      1
         NCelK=      1 NCelE2=     1 NClLst=     1 CellRange=     0.0.
 One-electron integrals computed using PRISM.
 One-electron integral symmetry used in STVInt
 NBasis=   432 RedAO= T EigKep=  1.48D-06  NBF=   432
 NBsUse=   430 1.00D-06 EigRej=  4.46D-07 NBFU=   430
 Precomputing XC quadrature grid using
 IXCGrd= 4 IRadAn=           5 IRanWt=          -1 IRanGd=           0 AccXCQ= 0.00D+00.
 Generated NRdTot=       0 NPtTot=           0 NUsed=           0 NTot=          32
 NSgBfM=   448   448   448   448   448 MxSgAt=    24 MxSgA2=    24.
 Leave Link  302 at Tue Nov 25 03:43:30 2025, MaxMem=   536870912 cpu:               0.6 elap:               0.3
 (Enter /apps/t4/rhel9/isv/gaussian/G16C02/g16/l303.exe)
 DipDrv:  MaxL=1.
 Leave Link  303 at Tue Nov 25 03:43:31 2025, MaxMem=   536870912 cpu:               0.1 elap:               0.1
 (Enter /apps/t4/rhel9/isv/gaussian/G16C02/g16/l401.exe)
 ExpMin= 4.38D-02 ExpMax= 8.59D+03 ExpMxC= 1.30D+03 IAcc=3 IRadAn=         5 AccDes= 0.00D+00
 Harris functional with IExCor=20419 and IRadAn=       5 diagonalized for initial guess.
 HarFok:  IExCor=20419 AccDes= 0.00D+00 IRadAn=         5 IDoV= 1 UseB2=F ITyADJ=14
 ICtDFT=  3500011 ScaDFX=  1.000000  1.000000  1.000000  1.000000
 FoFCou: FMM=F IPFlag=           0 FMFlag=      100000 FMFlg1=           0
         NFxFlg=           0 DoJE=T BraDBF=F KetDBF=T FulRan=T
         wScrn=  0.000000 ICntrl=       500 IOpCl=  0 I1Cent=   200000004 NGrid=           0
         NMat0=    1 NMatS0=      1 NMatT0=    0 NMatD0=    1 NMtDS0=    0 NMtDT0=    0
 Petite list used in FoFCou.
 Harris En= -952.922749672593    
 JPrj=0 DoOrth=F DoCkMO=F.
 Leave Link  401 at Tue Nov 25 03:43:32 2025, MaxMem=   536870912 cpu:               6.0 elap:               1.7
 (Enter /apps/t4/rhel9/isv/gaussian/G16C02/g16/l502.exe)
 Integral symmetry usage will be decided dynamically.
 Closed shell SCF:
 Using DIIS extrapolation, IDIIS=  1040.
 NGot=   536870912 LenX=   536458534 LenY=   536255584
 Requested convergence on RMS density matrix=1.00D-08 within 128 cycles.
 Requested convergence on MAX density matrix=1.00D-06.
 Requested convergence on             energy=1.00D-06.
 No special actions if energy rises.
 Fock matrices will be formed incrementally for  20 cycles.

 Cycle   1  Pass 1  IDiag  1:
 FoFJK:  IHMeth= 1 ICntrl=       0 DoSepK=T KAlg= 0 I1Cent=           0 FoldK=F
 IRaf=         1 NMat=       1 IRICut=       1 DoRegI=T DoRafI=F ISym2E= 0 IDoP0=0 IntGTp=1.
 FoFCou: FMM=F IPFlag=           0 FMFlag=      100000 FMFlg1=           0
         NFxFlg=           0 DoJE=T BraDBF=F KetDBF=F FulRan=T
         wScrn=  0.000000 ICntrl=       500 IOpCl=  0 I1Cent=           0 NGrid=           0
         NMat0=    1 NMatS0=      1 NMatT0=    0 NMatD0=    1 NMtDS0=    0 NMtDT0=    0
 Symmetry not used in FoFCou.
 Inv3:  Mode=1 IEnd=    10603200.
 Iteration    1 A*A^-1 deviation from unit magnitude is 3.33D-15 for   1661.
 Iteration    1 A*A^-1 deviation from orthogonality  is 2.22D-15 for   1228   1157.
 Iteration    1 A^-1*A deviation from unit magnitude is 3.22D-15 for    363.
 Iteration    1 A^-1*A deviation from orthogonality  is 3.52D-15 for   1701   1658.
 E= -986.191004874017    
 DIIS: error= 7.13D-02 at cycle   1 NSaved=   1.
 NSaved= 1 IEnMin= 1 EnMin= -986.191004874017     IErMin= 1 ErrMin= 7.13D-02
 ErrMax= 7.13D-02  0.00D+00 EMaxC= 1.00D-01 BMatC= 1.58D+00 BMatP= 1.58D+00
 IDIUse=3 WtCom= 2.87D-01 WtEn= 7.13D-01
 Coeff-Com:  0.100D+01
 Coeff-En:   0.100D+01
 Coeff:      0.100D+01
 Gap=     0.315 Goal=   None    Shift=    0.000
 GapD=    0.315 DampG=1.000 DampE=0.500 DampFc=0.5000 IDamp=-1.
 Damping current iteration by 5.00D-01
 RMSDP=2.70D-02 MaxDP=3.49D+00              OVMax= 1.02D-01

 Cycle   2  Pass 1  IDiag  1:
 RMSU=  7.47D-03    CP:  8.68D-01
 E= -986.316705248244     Delta-E=       -0.125700374226 Rises=F Damp=T
 DIIS: error= 3.29D-02 at cycle   2 NSaved=   2.
 NSaved= 2 IEnMin= 2 EnMin= -986.316705248244     IErMin= 2 ErrMin= 3.29D-02
 ErrMax= 3.29D-02  0.00D+00 EMaxC= 1.00D-01 BMatC= 3.08D-01 BMatP= 1.58D+00
 IDIUse=3 WtCom= 6.71D-01 WtEn= 3.29D-01
 Coeff-Com: -0.593D+00 0.159D+01
 Coeff-En:   0.000D+00 0.100D+01
 Coeff:     -0.398D+00 0.140D+01
 Gap=     0.305 Goal=   None    Shift=    0.000
 RMSDP=1.91D-02 MaxDP=2.21D+00 DE=-1.26D-01 OVMax= 7.09D-02

 Cycle   3  Pass 1  IDiag  1:
 RMSU=  5.82D-03    CP:  6.61D-01  1.65D+00
 E= -986.406450480792     Delta-E=       -0.089745232548 Rises=F Damp=F
 DIIS: error= 7.44D-03 at cycle   3 NSaved=   3.
 NSaved= 3 IEnMin= 3 EnMin= -986.406450480792     IErMin= 3 ErrMin= 7.44D-03
 ErrMax= 7.44D-03  0.00D+00 EMaxC= 1.00D-01 BMatC= 5.44D-02 BMatP= 3.08D-01
 IDIUse=3 WtCom= 9.26D-01 WtEn= 7.44D-02
 Coeff-Com: -0.314D+00 0.700D+00 0.614D+00
 Coeff-En:   0.000D+00 0.000D+00 0.100D+01
 Coeff:     -0.290D+00 0.648D+00 0.643D+00
 Gap=     0.278 Goal=   None    Shift=    0.000
 RMSDP=3.03D-03 MaxDP=3.30D-01 DE=-8.97D-02 OVMax= 4.40D-02

 Cycle   4  Pass 1  IDiag  1:
 RMSU=  1.51D-03    CP:  6.43D-01  1.91D+00  8.46D-01
 E= -986.440228744346     Delta-E=       -0.033778263554 Rises=F Damp=F
 DIIS: error= 3.37D-03 at cycle   4 NSaved=   4.
 NSaved= 4 IEnMin= 4 EnMin= -986.440228744346     IErMin= 4 ErrMin= 3.37D-03
 ErrMax= 3.37D-03  0.00D+00 EMaxC= 1.00D-01 BMatC= 6.69D-03 BMatP= 5.44D-02
 IDIUse=3 WtCom= 9.66D-01 WtEn= 3.37D-02
 Coeff-Com: -0.142D+00 0.306D+00 0.365D+00 0.471D+00
 Coeff-En:   0.000D+00 0.000D+00 0.161D-01 0.984D+00
 Coeff:     -0.137D+00 0.296D+00 0.353D+00 0.488D+00
 Gap=     0.275 Goal=   None    Shift=    0.000
 RMSDP=6.20D-04 MaxDP=4.60D-02 DE=-3.38D-02 OVMax= 1.35D-02

 Cycle   5  Pass 1  IDiag  1:
 RMSU=  4.68D-04    CP:  6.41D-01  1.88D+00  8.92D-01  8.88D-01
 E= -986.444509522997     Delta-E=       -0.004280778651 Rises=F Damp=F
 DIIS: error= 5.90D-04 at cycle   5 NSaved=   5.
 NSaved= 5 IEnMin= 5 EnMin= -986.444509522997     IErMin= 5 ErrMin= 5.90D-04
 ErrMax= 5.90D-04  0.00D+00 EMaxC= 1.00D-01 BMatC= 1.79D-04 BMatP= 6.69D-03
 IDIUse=3 WtCom= 9.94D-01 WtEn= 5.90D-03
 Coeff-Com: -0.405D-01 0.859D-01 0.120D+00 0.224D+00 0.611D+00
 Coeff-En:   0.000D+00 0.000D+00 0.000D+00 0.000D+00 0.100D+01
 Coeff:     -0.402D-01 0.854D-01 0.119D+00 0.222D+00 0.614D+00
 Gap=     0.274 Goal=   None    Shift=    0.000
 RMSDP=3.66D-04 MaxDP=3.74D-02 DE=-4.28D-03 OVMax= 2.65D-03

 Cycle   6  Pass 1  IDiag  1:
 RMSU=  1.30D-04    CP:  6.38D-01  1.89D+00  9.18D-01  9.47D-01  9.82D-01
 E= -986.444643950644     Delta-E=       -0.000134427647 Rises=F Damp=F
 DIIS: error= 1.34D-04 at cycle   6 NSaved=   6.
 NSaved= 6 IEnMin= 6 EnMin= -986.444643950644     IErMin= 6 ErrMin= 1.34D-04
 ErrMax= 1.34D-04  0.00D+00 EMaxC= 1.00D-01 BMatC= 1.71D-05 BMatP= 1.79D-04
 IDIUse=3 WtCom= 9.99D-01 WtEn= 1.34D-03
 Coeff-Com:  0.156D-02-0.390D-02 0.339D-02 0.293D-01 0.269D+00 0.700D+00
 Coeff-En:   0.000D+00 0.000D+00 0.000D+00 0.000D+00 0.000D+00 0.100D+01
 Coeff:      0.156D-02-0.390D-02 0.338D-02 0.293D-01 0.269D+00 0.701D+00
 Gap=     0.275 Goal=   None    Shift=    0.000
 RMSDP=2.97D-04 MaxDP=3.20D-02 DE=-1.34D-04 OVMax= 8.59D-04

 Cycle   7  Pass 1  IDiag  1:
 RMSU=  4.50D-05    CP:  6.34D-01  1.89D+00  9.31D-01  9.79D-01  1.03D+00
                    CP:  8.92D-01
 E= -986.444658973458     Delta-E=       -0.000015022814 Rises=F Damp=F
 DIIS: error= 4.29D-05 at cycle   7 NSaved=   7.
 NSaved= 7 IEnMin= 7 EnMin= -986.444658973458     IErMin= 7 ErrMin= 4.29D-05
 ErrMax= 4.29D-05  0.00D+00 EMaxC= 1.00D-01 BMatC= 2.13D-06 BMatP= 1.71D-05
 IDIUse=1 WtCom= 1.00D+00 WtEn= 0.00D+00
 Coeff-Com:  0.732D-02-0.157D-01-0.174D-01-0.221D-01 0.401D-01 0.299D+00
 Coeff-Com:  0.709D+00
 Coeff:      0.732D-02-0.157D-01-0.174D-01-0.221D-01 0.401D-01 0.299D+00
 Coeff:      0.709D+00
 Gap=     0.275 Goal=   None    Shift=    0.000
 RMSDP=7.67D-05 MaxDP=6.52D-03 DE=-1.50D-05 OVMax= 3.65D-04

 Cycle   8  Pass 1  IDiag  1:
 RMSU=  1.97D-05    CP:  6.34D-01  1.90D+00  9.36D-01  9.99D-01  1.07D+00
                    CP:  9.48D-01  1.07D+00
 E= -986.444661245410     Delta-E=       -0.000002271952 Rises=F Damp=F
 DIIS: error= 1.48D-05 at cycle   8 NSaved=   8.
 NSaved= 8 IEnMin= 8 EnMin= -986.444661245410     IErMin= 8 ErrMin= 1.48D-05
 ErrMax= 1.48D-05  0.00D+00 EMaxC= 1.00D-01 BMatC= 1.98D-07 BMatP= 2.13D-06
 IDIUse=1 WtCom= 1.00D+00 WtEn= 0.00D+00
 Coeff-Com:  0.210D-02-0.445D-02-0.583D-02-0.108D-01-0.104D-01 0.237D-01
 Coeff-Com:  0.260D+00 0.746D+00
 Coeff:      0.210D-02-0.445D-02-0.583D-02-0.108D-01-0.104D-01 0.237D-01
 Coeff:      0.260D+00 0.746D+00
 Gap=     0.275 Goal=   None    Shift=    0.000
 RMSDP=1.25D-05 MaxDP=1.34D-03 DE=-2.27D-06 OVMax= 1.53D-04

 Cycle   9  Pass 1  IDiag  1:
 RMSU=  5.38D-06    CP:  6.33D-01  1.90D+00  9.36D-01  1.00D+00  1.07D+00
                    CP:  9.37D-01  1.19D+00  1.02D+00
 E= -986.444661456710     Delta-E=       -0.000000211300 Rises=F Damp=F
 DIIS: error= 8.84D-06 at cycle   9 NSaved=   9.
 NSaved= 9 IEnMin= 9 EnMin= -986.444661456710     IErMin= 9 ErrMin= 8.84D-06
 ErrMax= 8.84D-06  0.00D+00 EMaxC= 1.00D-01 BMatC= 6.28D-08 BMatP= 1.98D-07
 IDIUse=1 WtCom= 1.00D+00 WtEn= 0.00D+00
 Coeff-Com: -0.265D-03 0.597D-03 0.157D-03-0.202D-02-0.110D-01-0.412D-01
 Coeff-Com:  0.275D-01 0.418D+00 0.608D+00
 Coeff:     -0.265D-03 0.597D-03 0.157D-03-0.202D-02-0.110D-01-0.412D-01
 Coeff:      0.275D-01 0.418D+00 0.608D+00
 Gap=     0.275 Goal=   None    Shift=    0.000
 RMSDP=4.01D-06 MaxDP=2.46D-04 DE=-2.11D-07 OVMax= 6.34D-05

 Cycle  10  Pass 1  IDiag  1:
 RMSU=  2.31D-06    CP:  6.33D-01  1.90D+00  9.36D-01  1.00D+00  1.07D+00
                    CP:  9.39D-01  1.22D+00  1.12D+00  1.11D+00
 E= -986.444661514929     Delta-E=       -0.000000058219 Rises=F Damp=F
 DIIS: error= 2.25D-06 at cycle  10 NSaved=  10.
 NSaved=10 IEnMin=10 EnMin= -986.444661514929     IErMin=10 ErrMin= 2.25D-06
 ErrMax= 2.25D-06  0.00D+00 EMaxC= 1.00D-01 BMatC= 4.16D-09 BMatP= 6.28D-08
 IDIUse=1 WtCom= 1.00D+00 WtEn= 0.00D+00
 Coeff-Com: -0.297D-03 0.639D-03 0.709D-03 0.562D-03-0.734D-03-0.155D-01
 Coeff-Com: -0.275D-01 0.897D-02 0.167D+00 0.866D+00
 Coeff:     -0.297D-03 0.639D-03 0.709D-03 0.562D-03-0.734D-03-0.155D-01
 Coeff:     -0.275D-01 0.897D-02 0.167D+00 0.866D+00
 Gap=     0.275 Goal=   None    Shift=    0.000
 RMSDP=3.29D-06 MaxDP=3.34D-04 DE=-5.82D-08 OVMax= 2.91D-05

 Cycle  11  Pass 1  IDiag  1:
 RMSU=  6.44D-07    CP:  6.34D-01  1.90D+00  9.36D-01  1.00D+00  1.07D+00
                    CP:  9.34D-01  1.24D+00  1.17D+00  1.24D+00  1.19D+00
 E= -986.444661520936     Delta-E=       -0.000000006007 Rises=F Damp=F
 DIIS: error= 8.57D-07 at cycle  11 NSaved=  11.
 NSaved=11 IEnMin=11 EnMin= -986.444661520936     IErMin=11 ErrMin= 8.57D-07
 ErrMax= 8.57D-07  0.00D+00 EMaxC= 1.00D-01 BMatC= 9.13D-10 BMatP= 4.16D-09
 IDIUse=1 WtCom= 1.00D+00 WtEn= 0.00D+00
 Coeff-Com: -0.978D-04 0.207D-03 0.301D-03 0.463D-03 0.121D-02-0.248D-02
 Coeff-Com: -0.165D-01-0.491D-01 0.545D-03 0.413D+00 0.652D+00
 Coeff:     -0.978D-04 0.207D-03 0.301D-03 0.463D-03 0.121D-02-0.248D-02
 Coeff:     -0.165D-01-0.491D-01 0.545D-03 0.413D+00 0.652D+00
 Gap=     0.275 Goal=   None    Shift=    0.000
 RMSDP=1.06D-06 MaxDP=9.53D-05 DE=-6.01D-09 OVMax= 1.05D-05

 Cycle  12  Pass 1  IDiag  1:
 RMSU=  2.76D-07    CP:  6.34D-01  1.90D+00  9.36D-01  1.00D+00  1.07D+00
                    CP:  9.32D-01  1.24D+00  1.19D+00  1.28D+00  1.25D+00
                    CP:  1.01D+00
 E= -986.444661522002     Delta-E=       -0.000000001066 Rises=F Damp=F
 DIIS: error= 2.17D-07 at cycle  12 NSaved=  12.
 NSaved=12 IEnMin=12 EnMin= -986.444661522002     IErMin=12 ErrMin= 2.17D-07
 ErrMax= 2.17D-07  0.00D+00 EMaxC= 1.00D-01 BMatC= 5.46D-11 BMatP= 9.13D-10
 IDIUse=1 WtCom= 1.00D+00 WtEn= 0.00D+00
 Coeff-Com:  0.145D-04-0.318D-04-0.114D-04 0.469D-04 0.484D-03 0.112D-02
 Coeff-Com: -0.574D-03-0.124D-01-0.191D-01-0.991D-02 0.168D+00 0.872D+00
 Coeff:      0.145D-04-0.318D-04-0.114D-04 0.469D-04 0.484D-03 0.112D-02
 Coeff:     -0.574D-03-0.124D-01-0.191D-01-0.991D-02 0.168D+00 0.872D+00
 Gap=     0.275 Goal=   None    Shift=    0.000
 RMSDP=3.39D-07 MaxDP=3.23D-05 DE=-1.07D-09 OVMax= 3.93D-06

 Cycle  13  Pass 1  IDiag  1:
 RMSU=  1.08D-07    CP:  6.34D-01  1.90D+00  9.36D-01  1.00D+00  1.07D+00
                    CP:  9.32D-01  1.24D+00  1.19D+00  1.29D+00  1.29D+00
                    CP:  1.13D+00  1.09D+00
 E= -986.444661522117     Delta-E=       -0.000000000115 Rises=F Damp=F
 DIIS: error= 1.29D-07 at cycle  13 NSaved=  13.
 NSaved=13 IEnMin=13 EnMin= -986.444661522117     IErMin=13 ErrMin= 1.29D-07
 ErrMax= 1.29D-07  0.00D+00 EMaxC= 1.00D-01 BMatC= 1.41D-11 BMatP= 5.46D-11
 IDIUse=1 WtCom= 1.00D+00 WtEn= 0.00D+00
 Coeff-Com:  0.161D-04-0.346D-04-0.341D-04-0.215D-04 0.114D-03 0.753D-03
 Coeff-Com:  0.160D-02-0.744D-03-0.934D-02-0.515D-01 0.141D-01 0.417D+00
 Coeff-Com:  0.628D+00
 Coeff:      0.161D-04-0.346D-04-0.341D-04-0.215D-04 0.114D-03 0.753D-03
 Coeff:      0.160D-02-0.744D-03-0.934D-02-0.515D-01 0.141D-01 0.417D+00
 Coeff:      0.628D+00
 Gap=     0.275 Goal=   None    Shift=    0.000
 RMSDP=5.26D-08 MaxDP=2.64D-06 DE=-1.15D-10 OVMax= 2.13D-06

 Cycle  14  Pass 1  IDiag  1:
 RMSU=  3.76D-08    CP:  6.34D-01  1.90D+00  9.36D-01  1.00D+00  1.07D+00
                    CP:  9.32D-01  1.24D+00  1.19D+00  1.29D+00  1.29D+00
                    CP:  1.16D+00  1.18D+00  1.02D+00
 E= -986.444661522134     Delta-E=       -0.000000000018 Rises=F Damp=F
 DIIS: error= 5.75D-08 at cycle  14 NSaved=  14.
 NSaved=14 IEnMin=14 EnMin= -986.444661522134     IErMin=14 ErrMin= 5.75D-08
 ErrMax= 5.75D-08  0.00D+00 EMaxC= 1.00D-01 BMatC= 1.27D-12 BMatP= 1.41D-11
 IDIUse=1 WtCom= 1.00D+00 WtEn= 0.00D+00
 Coeff-Com:  0.216D-06-0.265D-06-0.530D-05-0.167D-04-0.881D-04-0.115D-03
 Coeff-Com:  0.588D-03 0.257D-02 0.217D-02-0.844D-02-0.311D-01-0.124D+00
 Coeff-Com:  0.133D+00 0.103D+01
 Coeff:      0.216D-06-0.265D-06-0.530D-05-0.167D-04-0.881D-04-0.115D-03
 Coeff:      0.588D-03 0.257D-02 0.217D-02-0.844D-02-0.311D-01-0.124D+00
 Coeff:      0.133D+00 0.103D+01
 Gap=     0.275 Goal=   None    Shift=    0.000
 RMSDP=4.72D-08 MaxDP=3.76D-06 DE=-1.75D-11 OVMax= 1.35D-06

 Cycle  15  Pass 1  IDiag  1:
 RMSU=  1.79D-08    CP:  6.34D-01  1.90D+00  9.36D-01  1.00D+00  1.07D+00
                    CP:  9.32D-01  1.24D+00  1.19D+00  1.29D+00  1.28D+00
                    CP:  1.17D+00  1.20D+00  1.22D+00  1.28D+00
 E= -986.444661522113     Delta-E=        0.000000000021 Rises=F Damp=F
 DIIS: error= 1.27D-08 at cycle  15 NSaved=  15.
 NSaved=15 IEnMin=14 EnMin= -986.444661522134     IErMin=15 ErrMin= 1.27D-08
 ErrMax= 1.27D-08  0.00D+00 EMaxC= 1.00D-01 BMatC= 8.54D-14 BMatP= 1.27D-12
 IDIUse=1 WtCom= 1.00D+00 WtEn= 0.00D+00
 Coeff-Com: -0.117D-05 0.250D-05 0.218D-05 0.739D-06-0.168D-04-0.551D-04
 Coeff-Com: -0.894D-04 0.224D-03 0.886D-03 0.275D-02-0.323D-02-0.423D-01
 Coeff-Com: -0.287D-01 0.655D-01 0.101D+01
 Coeff:     -0.117D-05 0.250D-05 0.218D-05 0.739D-06-0.168D-04-0.551D-04
 Coeff:     -0.894D-04 0.224D-03 0.886D-03 0.275D-02-0.323D-02-0.423D-01
 Coeff:     -0.287D-01 0.655D-01 0.101D+01
 Gap=     0.275 Goal=   None    Shift=    0.000
 RMSDP=1.46D-08 MaxDP=1.32D-06 DE= 2.14D-11 OVMax= 4.04D-07

 Cycle  16  Pass 1  IDiag  1:
 RMSU=  4.40D-09    CP:  6.34D-01  1.90D+00  9.36D-01  1.00D+00  1.07D+00
                    CP:  9.32D-01  1.24D+00  1.19D+00  1.29D+00  1.28D+00
                    CP:  1.17D+00  1.20D+00  1.26D+00  1.39D+00  1.30D+00
 E= -986.444661522106     Delta-E=        0.000000000007 Rises=F Damp=F
 DIIS: error= 9.39D-09 at cycle  16 NSaved=  16.
 NSaved=16 IEnMin=14 EnMin= -986.444661522134     IErMin=16 ErrMin= 9.39D-09
 ErrMax= 9.39D-09  0.00D+00 EMaxC= 1.00D-01 BMatC= 6.59D-14 BMatP= 8.54D-14
 IDIUse=1 WtCom= 1.00D+00 WtEn= 0.00D+00
 Coeff-Com: -0.704D-06 0.147D-05 0.214D-05 0.335D-05 0.457D-05-0.107D-04
 Coeff-Com: -0.159D-03-0.306D-03 0.179D-03 0.308D-02 0.342D-02-0.334D-02
 Coeff-Com: -0.383D-01-0.141D+00 0.603D+00 0.573D+00
 Coeff:     -0.704D-06 0.147D-05 0.214D-05 0.335D-05 0.457D-05-0.107D-04
 Coeff:     -0.159D-03-0.306D-03 0.179D-03 0.308D-02 0.342D-02-0.334D-02
 Coeff:     -0.383D-01-0.141D+00 0.603D+00 0.573D+00
 Gap=     0.275 Goal=   None    Shift=    0.000
 RMSDP=4.52D-09 MaxDP=2.79D-07 DE= 6.82D-12 OVMax= 1.40D-07

 Error on total polarization charges =  0.06431
 SCF Done:  E(RCAM-B3LYP) =  -986.444661522     A.U. after   16 cycles
            NFock= 16  Conv=0.45D-08     -V/T= 2.0039
 KE= 9.826120355403D+02 PE=-4.914351636347D+03 EE= 1.645404408821D+03
 SMD-CDS (non-electrostatic) energy       (kcal/mol) =       9.71
 (included in total energy above)
 Leave Link  502 at Tue Nov 25 03:45:34 2025, MaxMem=   536870912 cpu:             476.5 elap:             121.5
 (Enter /apps/t4/rhel9/isv/gaussian/G16C02/g16/l601.exe)
 Copying SCF densities to generalized density rwf, IOpCl= 0 IROHF=0.

 **********************************************************************

            Population analysis using the SCF Density.

 **********************************************************************

 Orbital symmetries:
       Occupied  (A) (A) (A) (A) (A) (A) (A) (A) (A) (A) (A) (A)
                 (A) (A) (A) (A) (A) (A) (A) (A) (A) (A) (A) (A)
                 (A) (A) (A) (A) (A) (A) (A) (A) (A) (A) (A) (A)
                 (A) (A) (A) (A) (A) (A) (A) (A) (A) (A) (A) (A)
                 (A) (A) (A) (A) (A) (A) (A) (A) (A) (A) (A) (A)
                 (A) (A) (A) (A) (A)
       Virtual   (A) (A) (A) (A) (A) (A) (A) (A) (A) (A) (A) (A)
                 (A) (A) (A) (A) (A) (A) (A) (A) (A) (A) (A) (A)
                 (A) (A) (A) (A) (A) (A) (A) (A) (A) (A) (A) (A)
                 (A) (A) (A) (A) (A) (A) (A) (A) (A) (A) (A) (A)
                 (A) (A) (A) (A) (A) (A) (A) (A) (A) (A) (A) (A)
                 (A) (A) (A) (A) (A) (A) (A) (A) (A) (A) (A) (A)
                 (A) (A) (A) (A) (A) (A) (A) (A) (A) (A) (A) (A)
                 (A) (A) (A) (A) (A) (A) (A) (A) (A) (A) (A) (A)
                 (A) (A) (A) (A) (A) (A) (A) (A) (A) (A) (A) (A)
                 (A) (A) (A) (A) (A) (A) (A) (A) (A) (A) (A) (A)
                 (A) (A) (A) (A) (A) (A) (A) (A) (A) (A) (A) (A)
                 (A) (A) (A) (A) (A) (A) (A) (A) (A) (A) (A) (A)
                 (A) (A) (A) (A) (A) (A) (A) (A) (A) (A) (A) (A)
                 (A) (A) (A) (A) (A) (A) (A) (A) (A) (A) (A) (A)
                 (A) (A) (A) (A) (A) (A) (A) (A) (A) (A) (A) (A)
                 (A) (A) (A) (A) (A) (A) (A) (A) (A) (A) (A) (A)
                 (A) (A) (A) (A) (A) (A) (A) (A) (A) (A) (A) (A)
                 (A) (A) (A) (A) (A) (A) (A) (A) (A) (A) (A) (A)
                 (A) (A) (A) (A) (A) (A) (A) (A) (A) (A) (A) (A)
                 (A) (A) (A) (A) (A) (A) (A) (A) (A) (A) (A) (A)
                 (A) (A) (A) (A) (A) (A) (A) (A) (A) (A) (A) (A)
                 (A) (A) (A) (A) (A) (A) (A) (A) (A) (A) (A) (A)
                 (A) (A) (A) (A) (A) (A) (A) (A) (A) (A) (A) (A)
                 (A) (A) (A) (A) (A) (A) (A) (A) (A) (A) (A) (A)
                 (A) (A) (A) (A) (A) (A) (A) (A) (A) (A) (A) (A)
                 (A) (A) (A) (A) (A) (A) (A) (A) (A) (A) (A) (A)
                 (A) (A) (A) (A) (A) (A) (A) (A) (A) (A) (A) (A)
                 (A) (A) (A) (A) (A) (A) (A) (A) (A) (A) (A) (A)
                 (A) (A) (A) (A) (A) (A) (A) (A) (A) (A) (A) (A)
                 (A) (A) (A) (A) (A) (A) (A) (A) (A) (A) (A) (A)
                 (A) (A) (A) (A) (A)
 The electronic state is 1-A.
 Alpha  occ. eigenvalues --  -19.26024 -19.26003 -19.25641 -19.25306 -19.21308
 Alpha  occ. eigenvalues --  -19.21186 -19.21161 -19.21044 -10.42685 -10.42630
 Alpha  occ. eigenvalues --  -10.41515 -10.41415 -10.31934 -10.31764 -10.31105
 Alpha  occ. eigenvalues --  -10.31025 -10.29771 -10.29703  -1.22138  -1.21547
 Alpha  occ. eigenvalues --   -1.18414  -1.17829  -1.12664  -1.12523  -1.09993
 Alpha  occ. eigenvalues --   -1.09591  -0.99874  -0.91582  -0.89265  -0.81368
 Alpha  occ. eigenvalues --   -0.78906  -0.74570  -0.71793  -0.70741  -0.68413
 Alpha  occ. eigenvalues --   -0.64956  -0.62757  -0.60799  -0.59534  -0.58953
 Alpha  occ. eigenvalues --   -0.58030  -0.57184  -0.56778  -0.54714  -0.54276
 Alpha  occ. eigenvalues --   -0.53511  -0.52973  -0.52713  -0.51688  -0.50618
 Alpha  occ. eigenvalues --   -0.48555  -0.47624  -0.46909  -0.46464  -0.45653
 Alpha  occ. eigenvalues --   -0.41968  -0.41164  -0.40817  -0.39631  -0.38731
 Alpha  occ. eigenvalues --   -0.38402  -0.37623  -0.37096  -0.34834  -0.34582
 Alpha virt. eigenvalues --   -0.07106  -0.03038   0.00919   0.02837   0.03676
 Alpha virt. eigenvalues --    0.03893   0.04135   0.04632   0.05593   0.06237
 Alpha virt. eigenvalues --    0.06603   0.07463   0.07954   0.08252   0.08411
 Alpha virt. eigenvalues --    0.08799   0.09618   0.10865   0.11286   0.11775
 Alpha virt. eigenvalues --    0.12087   0.12525   0.13100   0.13857   0.14779
 Alpha virt. eigenvalues --    0.14898   0.15725   0.16174   0.17342   0.18193
 Alpha virt. eigenvalues --    0.18635   0.19130   0.19619   0.20516   0.20653
 Alpha virt. eigenvalues --    0.21163   0.21773   0.22114   0.22122   0.22689
 Alpha virt. eigenvalues --    0.22962   0.23384   0.23688   0.23898   0.24678
 Alpha virt. eigenvalues --    0.25114   0.26253   0.26370   0.26701   0.26826
 Alpha virt. eigenvalues --    0.27284   0.27833   0.28465   0.28901   0.29313
 Alpha virt. eigenvalues --    0.29697   0.29980   0.30267   0.30613   0.30919
 Alpha virt. eigenvalues --    0.31139   0.31539   0.31830   0.32306   0.32780
 Alpha virt. eigenvalues --    0.32936   0.33512   0.33981   0.34463   0.34938
 Alpha virt. eigenvalues --    0.35294   0.35829   0.36102   0.36367   0.36597
 Alpha virt. eigenvalues --    0.36977   0.37517   0.38228   0.38890   0.39732
 Alpha virt. eigenvalues --    0.39836   0.40612   0.41039   0.41974   0.42765
 Alpha virt. eigenvalues --    0.43487   0.43998   0.44495   0.44789   0.45929
 Alpha virt. eigenvalues --    0.46683   0.46968   0.47928   0.48891   0.49283
 Alpha virt. eigenvalues --    0.50422   0.51190   0.52690   0.54924   0.56872
 Alpha virt. eigenvalues --    0.58134   0.59536   0.60070   0.60975   0.61281
 Alpha virt. eigenvalues --    0.61578   0.62021   0.64321   0.65681   0.66619
 Alpha virt. eigenvalues --    0.66863   0.67887   0.69316   0.69796   0.70493
 Alpha virt. eigenvalues --    0.70716   0.71865   0.73056   0.73303   0.73702
 Alpha virt. eigenvalues --    0.75409   0.76169   0.76261   0.77430   0.78315
 Alpha virt. eigenvalues --    0.78701   0.79863   0.80265   0.81235   0.82286
 Alpha virt. eigenvalues --    0.83852   0.86586   0.88160   0.89673   0.91437
 Alpha virt. eigenvalues --    0.92082   0.93075   0.94265   0.95009   0.98176
 Alpha virt. eigenvalues --    0.98765   1.00429   1.01620   1.04596   1.04920
 Alpha virt. eigenvalues --    1.07030   1.09302   1.12400   1.13637   1.14356
 Alpha virt. eigenvalues --    1.15006   1.15877   1.17383   1.18695   1.19166
 Alpha virt. eigenvalues --    1.20131   1.20971   1.21415   1.21719   1.22728
 Alpha virt. eigenvalues --    1.22795   1.23635   1.23992   1.25010   1.25591
 Alpha virt. eigenvalues --    1.26104   1.26935   1.27564   1.28613   1.29520
 Alpha virt. eigenvalues --    1.30864   1.31798   1.33597   1.34180   1.35820
 Alpha virt. eigenvalues --    1.36540   1.37492   1.38416   1.39049   1.41544
 Alpha virt. eigenvalues --    1.43091   1.46402   1.49086   1.50775   1.52326
 Alpha virt. eigenvalues --    1.54441   1.55155   1.55998   1.56515   1.57793
 Alpha virt. eigenvalues --    1.58631   1.59831   1.60053   1.60214   1.61255
 Alpha virt. eigenvalues --    1.62167   1.63703   1.64423   1.65750   1.66250
 Alpha virt. eigenvalues --    1.69471   1.71057   1.72451   1.75044   1.76497
 Alpha virt. eigenvalues --    1.78006   1.79131   1.80199   1.81253   1.83316
 Alpha virt. eigenvalues --    1.84947   1.87105   1.87929   1.89504   1.91043
 Alpha virt. eigenvalues --    1.91631   1.93372   1.93751   2.00008   2.00651
 Alpha virt. eigenvalues --    2.01049   2.02807   2.03689   2.04478   2.04866
 Alpha virt. eigenvalues --    2.06920   2.09002   2.09835   2.12669   2.15199
 Alpha virt. eigenvalues --    2.16246   2.17483   2.19974   2.22063   2.25320
 Alpha virt. eigenvalues --    2.29285   2.30991   2.35703   2.41772   2.46691
 Alpha virt. eigenvalues --    2.51830   2.60280   2.61552   2.63729   2.65439
 Alpha virt. eigenvalues --    2.66111   2.67426   2.67944   2.70294   2.71576
 Alpha virt. eigenvalues --    2.73275   2.74682   2.77404   2.79886   2.82162
 Alpha virt. eigenvalues --    2.82940   2.85882   2.86731   2.87063   2.91151
 Alpha virt. eigenvalues --    2.92343   2.93342   2.94997   2.95565   2.96285
 Alpha virt. eigenvalues --    2.97863   2.98479   2.99536   3.00511   3.01277
 Alpha virt. eigenvalues --    3.02533   3.05301   3.06568   3.07956   3.08349
 Alpha virt. eigenvalues --    3.11252   3.11874   3.14430   3.15327   3.16130
 Alpha virt. eigenvalues --    3.20126   3.22116   3.22982   3.23820   3.25028
 Alpha virt. eigenvalues --    3.26227   3.28439   3.29206   3.30839   3.34498
 Alpha virt. eigenvalues --    3.35775   3.37190   3.38480   3.40869   3.42157
 Alpha virt. eigenvalues --    3.44006   3.48092   3.50609   3.58436   3.59649
 Alpha virt. eigenvalues --    3.61575   3.63777   3.64409   3.69071   3.71042
 Alpha virt. eigenvalues --    3.72114   3.77472   3.81732   3.88114   3.90654
 Alpha virt. eigenvalues --    3.91774   3.93331   3.93425   4.10519   4.11547
 Alpha virt. eigenvalues --    4.12704   4.14139   4.20752   4.24571   4.31483
 Alpha virt. eigenvalues --    4.35483   4.37962   4.88162   5.00585   5.04129
 Alpha virt. eigenvalues --    5.06553   5.10610   5.11683   5.13985   5.16021
 Alpha virt. eigenvalues --    5.16642   5.21846   5.22539   5.24155   5.24180
 Alpha virt. eigenvalues --    5.34253   5.35732   5.46315   5.50045   5.59257
 Alpha virt. eigenvalues --    5.61768   5.66959   5.68182   5.87597   5.87985
 Alpha virt. eigenvalues --    5.91167   5.91997  23.55557  23.75911  23.76955
 Alpha virt. eigenvalues --   23.84854  23.87349  23.93827  23.95744  24.04653
 Alpha virt. eigenvalues --   24.09093  24.16070  49.88285  49.89590  49.90174
 Alpha virt. eigenvalues --   49.91059  49.98022  50.02138  50.03807  50.05943
          Condensed to atoms (all electrons):
               1          2          3          4          5          6
     1  O    8.163504   0.269891  -0.099180  -0.050643   0.031471   0.137556
     2  C    0.269891   8.926082   0.226304  -4.258367   1.136270  -0.563369
     3  O   -0.099180   0.226304   8.004393   0.016259  -0.042748   0.041590
     4  C   -0.050643  -4.258367   0.016259  20.659104  -3.799847   0.004971
     5  C    0.031471   1.136270  -0.042748  -3.799847  19.838965  -6.203684
     6  C    0.137556  -0.563369   0.041590   0.004971  -6.203684  18.955951
     7  C    0.001219  -0.241810  -0.004574  -0.053012   0.076611  -1.563638
     8  O   -0.000319  -0.007969  -0.000045   0.086298  -0.114844  -0.112612
     9  O   -0.000067  -0.004210  -0.000069   0.008729  -0.049460   0.038389
    10  C    0.016726  -0.174655   0.008284  -3.748072  -3.852226   1.352364
    11  C   -0.031170   0.644611  -0.061791  -3.723996   6.087148  -6.103515
    12  C   -0.042706  -0.017711  -0.010944   0.850493  -6.934490  -0.419223
    13  C    0.000120  -0.040781   0.016959   0.597509   0.012744  -0.902526
    14  O   -0.005278   0.044530  -0.038706  -0.118365   0.012874  -0.009329
    15  O   -0.000235   0.000976  -0.006769  -0.081430  -0.011304   0.006537
    16  C    0.000189  -0.234303  -0.002359  -0.413242  -0.051339   0.986037
    17  O    0.000001   0.000900   0.000018   0.017231   0.012570  -0.011336
    18  O    0.000001  -0.005296  -0.000020   0.011937   0.020628  -0.073924
    19  H   -0.013272   0.084822   0.253398  -0.072378  -0.001628   0.000487
    20  H    0.002438   0.018478   0.000006   0.002345   0.345044  -0.029728
    21  H    0.000001  -0.001137  -0.000001  -0.004217  -0.000256  -0.042611
    22  H    0.000021   0.004049   0.000152  -0.000354  -0.026833   0.015602
    23  H    0.000004  -0.002786  -0.000450   0.021774   0.007383  -0.008205
    24  H   -0.000000  -0.000531  -0.000000  -0.005431  -0.009954   0.012012
               7          8          9         10         11         12
     1  O    0.001219  -0.000319  -0.000067   0.016726  -0.031170  -0.042706
     2  C   -0.241810  -0.007969  -0.004210  -0.174655   0.644611  -0.017711
     3  O   -0.004574  -0.000045  -0.000069   0.008284  -0.061791  -0.010944
     4  C   -0.053012   0.086298   0.008729  -3.748072  -3.723996   0.850493
     5  C    0.076611  -0.114844  -0.049460  -3.852226   6.087148  -6.934490
     6  C   -1.563638  -0.112612   0.038389   1.352364  -6.103515  -0.419223
     7  C    8.240568   0.474549   0.143281  -0.302437  -0.020822  -0.511442
     8  O    0.474549   8.122568  -0.117039   0.024278  -0.034230   0.022455
     9  O    0.143281  -0.117039   7.928013  -0.017114  -0.029623   0.021363
    10  C   -0.302437   0.024278  -0.017114  18.941391  -2.327319   0.705819
    11  C   -0.020822  -0.034230  -0.029623  -2.327319  17.060758  -5.115927
    12  C   -0.511442   0.022455   0.021363   0.705819  -5.115927  21.197383
    13  C   -0.210232  -0.001067   0.000183  -0.333115   0.046746  -3.509464
    14  O   -0.002307  -0.000006  -0.000016   0.020745   0.085411  -0.071135
    15  O   -0.000939  -0.000003   0.000022   0.109784   0.086262  -0.121491
    16  C   -0.056330   0.020014   0.033792  -3.977231  -0.461668  -0.600003
    17  O   -0.025666  -0.000243  -0.005979  -0.102313   0.164036   0.085694
    18  O    0.007238  -0.002880  -0.015375   0.003369   0.093126   0.013062
    19  H   -0.000928  -0.000001  -0.000001  -0.000999  -0.006620  -0.008772
    20  H    0.007477   0.002834   0.000279  -0.003033  -0.019964   0.023190
    21  H    0.074320  -0.008204   0.249176  -0.012817  -0.004237  -0.000555
    22  H    0.000274   0.000034   0.000107   0.007868   0.344724  -0.025622
    23  H   -0.000270  -0.000000   0.000000  -0.014808  -0.006448  -0.091590
    24  H    0.021067   0.000247   0.000835  -0.187234  -0.022828  -0.008497
              13         14         15         16         17         18
     1  O    0.000120  -0.005278  -0.000235   0.000189   0.000001   0.000001
     2  C   -0.040781   0.044530   0.000976  -0.234303   0.000900  -0.005296
     3  O    0.016959  -0.038706  -0.006769  -0.002359   0.000018  -0.000020
     4  C    0.597509  -0.118365  -0.081430  -0.413242   0.017231   0.011937
     5  C    0.012744   0.012874  -0.011304  -0.051339   0.012570   0.020628
     6  C   -0.902526  -0.009329   0.006537   0.986037  -0.011336  -0.073924
     7  C   -0.210232  -0.002307  -0.000939  -0.056330  -0.025666   0.007238
     8  O   -0.001067  -0.000006  -0.000003   0.020014  -0.000243  -0.002880
     9  O    0.000183  -0.000016   0.000022   0.033792  -0.005979  -0.015375
    10  C   -0.333115   0.020745   0.109784  -3.977231  -0.102313   0.003369
    11  C    0.046746   0.085411   0.086262  -0.461668   0.164036   0.093126
    12  C   -3.509464  -0.071135  -0.121491  -0.600003   0.085694   0.013062
    13  C    9.543389   0.366353   0.195145  -0.108298  -0.001960  -0.007037
    14  O    0.366353   8.169201  -0.096850  -0.004553  -0.000026  -0.000046
    15  O    0.195145  -0.096850   7.969682   0.002095  -0.000282  -0.000014
    16  C   -0.108298  -0.004553   0.002095  10.011132   0.206776   0.071352
    17  O   -0.001960  -0.000026  -0.000282   0.206776   8.147878  -0.101283
    18  O   -0.007037  -0.000046  -0.000014   0.071352  -0.101283   7.904411
    19  H    0.013902   0.001678  -0.000015  -0.000157   0.000000  -0.000000
    20  H    0.006607   0.000117   0.000020   0.003443   0.000020   0.000172
    21  H    0.000230  -0.000000   0.000000   0.015190  -0.000121   0.000012
    22  H    0.021704  -0.000138   0.001637   0.012183   0.000427  -0.000225
    23  H    0.107308  -0.012864   0.255426   0.001050  -0.000005   0.000001
    24  H   -0.000466  -0.000001   0.000002   0.223914  -0.016071   0.243627
              19         20         21         22         23         24
     1  O   -0.013272   0.002438   0.000001   0.000021   0.000004  -0.000000
     2  C    0.084822   0.018478  -0.001137   0.004049  -0.002786  -0.000531
     3  O    0.253398   0.000006  -0.000001   0.000152  -0.000450  -0.000000
     4  C   -0.072378   0.002345  -0.004217  -0.000354   0.021774  -0.005431
     5  C   -0.001628   0.345044  -0.000256  -0.026833   0.007383  -0.009954
     6  C    0.000487  -0.029728  -0.042611   0.015602  -0.008205   0.012012
     7  C   -0.000928   0.007477   0.074320   0.000274  -0.000270   0.021067
     8  O   -0.000001   0.002834  -0.008204   0.000034  -0.000000   0.000247
     9  O   -0.000001   0.000279   0.249176   0.000107   0.000000   0.000835
    10  C   -0.000999  -0.003033  -0.012817   0.007868  -0.014808  -0.187234
    11  C   -0.006620  -0.019964  -0.004237   0.344724  -0.006448  -0.022828
    12  C   -0.008772   0.023190  -0.000555  -0.025622  -0.091590  -0.008497
    13  C    0.013902   0.006607   0.000230   0.021704   0.107308  -0.000466
    14  O    0.001678   0.000117  -0.000000  -0.000138  -0.012864  -0.000001
    15  O   -0.000015   0.000020   0.000000   0.001637   0.255426   0.000002
    16  C   -0.000157   0.003443   0.015190   0.012183   0.001050   0.223914
    17  O    0.000000   0.000020  -0.000121   0.000427  -0.000005  -0.016071
    18  O   -0.000000   0.000172   0.000012  -0.000225   0.000001   0.243627
    19  H    0.367004   0.000075  -0.000000   0.000001  -0.000004  -0.000000
    20  H    0.000075   0.422189   0.000092   0.000015  -0.000000   0.000002
    21  H   -0.000000   0.000092   0.386213  -0.000000  -0.000000   0.000843
    22  H    0.000001   0.000015  -0.000000   0.430063  -0.000054   0.000056
    23  H   -0.000004  -0.000000  -0.000000  -0.000054   0.364630   0.000000
    24  H   -0.000000   0.000002   0.000843   0.000056   0.000000   0.394528
 Mulliken charges:
               1
     1  O   -0.380270
     2  C    0.196014
     3  O   -0.299707
     4  C    0.052704
     5  C   -0.483094
     6  C    0.492202
     7  C   -0.052194
     8  O   -0.353816
     9  O   -0.185214
    10  C   -0.137259
    11  C   -0.642661
    12  C    0.570112
    13  C    0.186050
    14  O   -0.341289
    15  O   -0.308257
    16  C    0.322315
    17  O   -0.370267
    18  O   -0.162835
    19  H    0.383409
    20  H    0.217884
    21  H    0.348080
    22  H    0.214308
    23  H    0.379908
    24  H    0.353879
 Sum of Mulliken charges =  -0.00000
 Mulliken charges with hydrogens summed into heavy atoms:
               1
     1  O   -0.380270
     2  C    0.196014
     3  O    0.083702
     4  C    0.052704
     5  C   -0.265210
     6  C    0.492202
     7  C   -0.052194
     8  O   -0.353816
     9  O    0.162866
    10  C   -0.137259
    11  C   -0.428353
    12  C    0.570112
    13  C    0.186050
    14  O   -0.341289
    15  O    0.071651
    16  C    0.322315
    17  O   -0.370267
    18  O    0.191044
 Electronic spatial extent (au):  <R**2>=           4660.3915
 Charge=              0.0000 electrons
 Dipole moment (field-independent basis, Debye):
    X=              2.4002    Y=              3.7146    Z=              2.9571  Tot=              5.3201
 Quadrupole moment (field-independent basis, Debye-Ang):
   XX=            -77.6420   YY=           -110.2848   ZZ=           -106.6301
   XY=             -8.2676   XZ=             -9.5422   YZ=            -16.4728
 Traceless Quadrupole moment (field-independent basis, Debye-Ang):
   XX=             20.5437   YY=            -12.0992   ZZ=             -8.4445
   XY=             -8.2676   XZ=             -9.5422   YZ=            -16.4728
 Octapole moment (field-independent basis, Debye-Ang**2):
  XXX=             77.7106  YYY=             73.8792  ZZZ=              7.1645  XYY=            -49.9785
  XXY=             29.4641  XXZ=             64.1020  XZZ=              3.2853  YZZ=             -4.3986
  YYZ=             14.8919  XYZ=            -23.5651
 Hexadecapole moment (field-independent basis, Debye-Ang**3):
 XXXX=          -2685.8445 YYYY=          -1881.5319 ZZZZ=           -270.8073 XXXY=             48.5461
 XXXZ=           -182.0903 YYYX=           -241.7129 YYYZ=           -115.6322 ZZZX=             -7.1962
 ZZZY=            -15.0886 XXYY=           -771.1540 XXZZ=           -659.4146 YYZZ=           -350.0048
 XXYZ=           -165.5478 YYXZ=            -48.4638 ZZXY=              3.7782
 N-N= 1.299890530463D+03 E-N=-4.914351636281D+03  KE= 9.826120355403D+02
 No NMR shielding tensors so no spin-rotation constants.
 Leave Link  601 at Tue Nov 25 03:45:34 2025, MaxMem=   536870912 cpu:               0.3 elap:               0.2
 (Enter /apps/t4/rhel9/isv/gaussian/G16C02/g16/l701.exe)
 ... and contract with generalized density number  0.
 Compute integral first derivatives.
 D1PCM: PCM CHGder 1st derivatives, ID1Alg=3 FixD1E=F DoIter=F DoCFld=F I1PDM=0.
 GePol: Maximum number of non-zero 1st derivatives   =     185
 Leave Link  701 at Tue Nov 25 03:45:36 2025, MaxMem=   536870912 cpu:               6.2 elap:               1.7
 (Enter /apps/t4/rhel9/isv/gaussian/G16C02/g16/l702.exe)
 L702 exits ... SP integral derivatives will be done elsewhere.
 Leave Link  702 at Tue Nov 25 03:45:37 2025, MaxMem=   536870912 cpu:               0.0 elap:               0.0
 (Enter /apps/t4/rhel9/isv/gaussian/G16C02/g16/l703.exe)
 Integral derivatives from FoFJK, PRISM(SPDF).
 Compute integral first derivatives, UseDBF=F ICtDFT=           0.
 Calling FoFJK, ICntrl=      2127 FMM=F ISym2X=0 I1Cent= 0 IOpClX= 0 NMat=1 NMatS=1 NMatT=0.
 FoFJK:  IHMeth= 1 ICntrl=    2127 DoSepK=T KAlg= 0 I1Cent=           0 FoldK=F
 IRaf=         1 NMat=       1 IRICut=       1 DoRegI=T DoRafI=F ISym2E= 0 IDoP0=0 IntGTp=1.
 FoFCou: FMM=F IPFlag=           0 FMFlag=      100000 FMFlg1=         800
         NFxFlg=           0 DoJE=F BraDBF=F KetDBF=F FulRan=T
         wScrn=  0.000000 ICntrl=      2527 IOpCl=  0 I1Cent=           0 NGrid=           0
         NMat0=    1 NMatS0=      1 NMatT0=    0 NMatD0=    1 NMtDS0=    0 NMtDT0=    0
 Symmetry not used in FoFCou.
 Leave Link  703 at Tue Nov 25 03:46:16 2025, MaxMem=   536870912 cpu:             155.6 elap:              39.3
 (Enter /apps/t4/rhel9/isv/gaussian/G16C02/g16/l716.exe)
 Dipole        = 9.44312227D-01 1.46143120D+00 1.16343186D+00
 ***** Axes restored to original set *****
 -------------------------------------------------------------------
 Center     Atomic                   Forces (Hartrees/Bohr)
 Number     Number              X              Y              Z
 -------------------------------------------------------------------
      1        8           0.039884021   -0.045672997   -0.023735256
      2        6          -0.090703351    0.032540573    0.003086213
      3        8           0.016565558    0.015801216    0.008647623
      4        6           0.012226577   -0.017391939   -0.004364307
      5        6          -0.007610711   -0.016630873    0.006609433
      6        6          -0.002422669   -0.002607227   -0.015767696
      7        6           0.006441736    0.010814973    0.005653709
      8        8          -0.000361660   -0.004119906   -0.001116955
      9        8          -0.002574762   -0.002923819    0.001535044
     10        6          -0.017612424   -0.007210092   -0.003436200
     11        6          -0.002478416    0.006777436    0.000142618
     12        6           0.022774179    0.005241888   -0.008890858
     13        6          -0.067723161   -0.064000511    0.025737790
     14        8           0.061128394    0.010508066   -0.027087871
     15        8          -0.002718277    0.022758427    0.003505220
     16        6           0.008580116   -0.002987776    0.006272492
     17        8          -0.005534652    0.002382365    0.000256531
     18        8          -0.003161423   -0.000834861   -0.001615081
     19        1           0.034799930    0.015358291    0.018971520
     20        1           0.001827692   -0.001602461   -0.002820941
     21        1          -0.000291568    0.000375588   -0.000274105
     22        1          -0.000818693    0.001483556    0.000145627
     23        1          -0.000291323    0.041963767    0.008235970
     24        1           0.000074888   -0.000023684    0.000309479
 -------------------------------------------------------------------
 Cartesian Forces:  Max     0.090703351 RMS     0.021988135
 Leave Link  716 at Tue Nov 25 03:46:16 2025, MaxMem=   536870912 cpu:               0.0 elap:               0.1
 (Enter /apps/t4/rhel9/isv/gaussian/G16C02/g16/l103.exe)

 GradGradGradGradGradGradGradGradGradGradGradGradGradGradGradGradGradGrad
 Berny optimization.
 FormGI is forming the generalized inverse of G from B-inverse, IUseBI=4.
 Internal  Forces:  Max     0.067584807 RMS     0.015490643
 Search for a local minimum.
 Step number   1 out of a maximum of  116
 All quantities printed in internal units (Hartrees-Bohrs-Radians)
 RMS Force = .15491D-01 SwitMx=.10000D-02 MixMth= 1
 Mixed Optimization -- RFO/linear search
 Second derivative matrix not updated -- first step.
 ITU=  0
     Eigenvalues ---    0.00914   0.00914   0.01008   0.01008   0.01274
     Eigenvalues ---    0.01276   0.01469   0.01469   0.01650   0.01662
     Eigenvalues ---    0.01729   0.01792   0.01794   0.01894   0.01947
     Eigenvalues ---    0.02036   0.02048   0.02094   0.02118   0.02568
     Eigenvalues ---    0.02568   0.16000   0.16000   0.16000   0.16000
     Eigenvalues ---    0.16000   0.16000   0.22928   0.23848   0.24218
     Eigenvalues ---    0.24860   0.24966   0.24972   0.24982   0.24983
     Eigenvalues ---    0.24983   0.24988   0.24989   0.25000   0.25000
     Eigenvalues ---    0.25000   0.25000   0.33582   0.33583   0.34375
     Eigenvalues ---    0.34378   0.35478   0.35489   0.40745   0.41285
     Eigenvalues ---    0.44096   0.44905   0.45241   0.45470   0.45475
     Eigenvalues ---    0.46185   0.46901   0.46928   0.52972   0.52973
     Eigenvalues ---    0.58622   0.58623   0.79360   0.79490   0.99420
     Eigenvalues ---    0.99420
 RFO step:  Lambda=-5.62970030D-02 EMin= 9.14192394D-03
 Linear search not attempted -- first point.
 Maximum step size (   0.300) exceeded in Quadratic search.
    -- Step size scaled by   0.791
 Iteration  1 RMS(Cart)=  0.06510775 RMS(Int)=  0.00202988
 Iteration  2 RMS(Cart)=  0.00226597 RMS(Int)=  0.00009853
 Iteration  3 RMS(Cart)=  0.00000795 RMS(Int)=  0.00009833
 Iteration  4 RMS(Cart)=  0.00000000 RMS(Int)=  0.00009833
 ITry= 1 IFail=0 DXMaxC= 3.14D-01 DCOld= 1.00D+10 DXMaxT= 3.00D-01 DXLimC= 3.00D+00 Rises=F
 Variable       Old X    -DE/DX   Delta X   Delta X   Delta X     New X
                                 (Linear)    (Quad)   (Total)
    R1        2.38262  -0.06504   0.00000  -0.06050  -0.06050   2.32212
    R2        2.63099  -0.05907   0.00000  -0.08885  -0.08885   2.54213
    R3        2.79997  -0.00168   0.00000  -0.00332  -0.00332   2.79664
    R4        1.91428  -0.03768   0.00000  -0.05829  -0.05829   1.85599
    R5        2.65380  -0.01734   0.00000  -0.02716  -0.02717   2.62663
    R6        2.67759  -0.01129   0.00000  -0.01850  -0.01852   2.65907
    R7        2.63444  -0.00627   0.00000  -0.00941  -0.00940   2.62504
    R8        2.04905  -0.00224   0.00000  -0.00431  -0.00431   2.04475
    R9        2.81341   0.00434   0.00000   0.00875   0.00875   2.82216
   R10        2.64646  -0.00645   0.00000  -0.00984  -0.00982   2.63664
   R11        2.28872  -0.00378   0.00000  -0.00285  -0.00285   2.28587
   R12        2.52047  -0.00298   0.00000  -0.00367  -0.00367   2.51680
   R13        1.83679   0.00026   0.00000   0.00034   0.00034   1.83714
   R14        2.65385  -0.01596   0.00000  -0.02493  -0.02492   2.62893
   R15        2.81340  -0.00004   0.00000  -0.00009  -0.00009   2.81331
   R16        2.65256  -0.01463   0.00000  -0.02292  -0.02294   2.62962
   R17        2.04888  -0.00169   0.00000  -0.00324  -0.00324   2.04564
   R18        2.80002  -0.00578   0.00000  -0.01143  -0.01143   2.78859
   R19        2.38191  -0.06758   0.00000  -0.06277  -0.06277   2.31915
   R20        2.63129  -0.05702   0.00000  -0.08581  -0.08581   2.54547
   R21        1.91434  -0.03794   0.00000  -0.05870  -0.05870   1.85564
   R22        2.28872  -0.00476   0.00000  -0.00358  -0.00358   2.28514
   R23        2.52048  -0.00260   0.00000  -0.00319  -0.00319   2.51728
   R24        1.83679   0.00006   0.00000   0.00008   0.00008   1.83687
    A1        2.08334   0.01558   0.00000   0.03979   0.03953   2.12287
    A2        2.09635   0.00832   0.00000   0.02107   0.02083   2.11718
    A3        2.10254  -0.02405   0.00000  -0.06249  -0.06274   2.03980
    A4        2.11017  -0.03765   0.00000  -0.13759  -0.13759   1.97258
    A5        2.06320  -0.01381   0.00000  -0.03549  -0.03550   2.02770
    A6        2.13938   0.01406   0.00000   0.03653   0.03650   2.17588
    A7        2.07968  -0.00027   0.00000  -0.00129  -0.00127   2.07842
    A8        2.10446   0.00179   0.00000   0.00489   0.00494   2.10940
    A9        2.08084  -0.00050   0.00000  -0.00101  -0.00108   2.07976
   A10        2.09789  -0.00128   0.00000  -0.00387  -0.00394   2.09395
   A11        1.99038   0.00547   0.00000   0.01660   0.01635   2.00672
   A12        2.11170  -0.00556   0.00000  -0.01203  -0.01221   2.09949
   A13        2.15281   0.00097   0.00000   0.00459   0.00428   2.15710
   A14        2.16177  -0.00089   0.00000  -0.00243  -0.00245   2.15932
   A15        1.97342  -0.00284   0.00000  -0.00746  -0.00748   1.96594
   A16        2.14682   0.00368   0.00000   0.00935   0.00933   2.15615
   A17        1.90821  -0.00013   0.00000  -0.00049  -0.00049   1.90772
   A18        2.06528   0.00360   0.00000   0.00964   0.00967   2.07495
   A19        2.15281   0.00047   0.00000   0.00143   0.00129   2.15410
   A20        2.06413  -0.00398   0.00000  -0.01009  -0.01023   2.05390
   A21        2.12176  -0.00189   0.00000  -0.00575  -0.00574   2.11602
   A22        2.08029   0.00083   0.00000   0.00244   0.00234   2.08263
   A23        2.08114   0.00106   0.00000   0.00330   0.00321   2.08434
   A24        2.07978   0.00244   0.00000   0.00551   0.00544   2.08522
   A25        2.14403   0.00084   0.00000   0.00221   0.00210   2.14613
   A26        2.05856  -0.00336   0.00000  -0.00867  -0.00877   2.04980
   A27        2.10529   0.01297   0.00000   0.03324   0.03315   2.13844
   A28        2.09362  -0.03096   0.00000  -0.08014  -0.08023   2.01339
   A29        2.08326   0.01789   0.00000   0.04593   0.04585   2.12911
   A30        2.10999  -0.03775   0.00000  -0.13798  -0.13798   1.97201
   A31        2.16177  -0.00330   0.00000  -0.00841  -0.00843   2.15334
   A32        1.97345  -0.00136   0.00000  -0.00340  -0.00341   1.97003
   A33        2.14680   0.00470   0.00000   0.01225   0.01223   2.15904
   A34        1.90819   0.00036   0.00000   0.00133   0.00133   1.90953
    D1       -0.02698  -0.00200   0.00000  -0.02219  -0.02234  -0.04931
    D2       -3.12175   0.00153   0.00000   0.01719   0.01734  -3.10441
    D3       -0.60779  -0.00150   0.00000  -0.01774  -0.01782  -0.62561
    D4        2.58023  -0.00084   0.00000  -0.01116  -0.01125   2.56897
    D5        2.48664  -0.00488   0.00000  -0.05694  -0.05685   2.42979
    D6       -0.60854  -0.00422   0.00000  -0.05035  -0.05028  -0.65881
    D7       -3.06098   0.00061   0.00000   0.01009   0.00994  -3.05104
    D8        0.08194  -0.00082   0.00000  -0.00471  -0.00479   0.07715
    D9        0.03582   0.00038   0.00000   0.00482   0.00487   0.04068
   D10       -3.10444  -0.00105   0.00000  -0.00998  -0.00987  -3.11431
   D11        3.02095  -0.00100   0.00000  -0.00699  -0.00706   3.01389
   D12       -0.16485  -0.00338   0.00000  -0.03310  -0.03327  -0.19812
   D13       -0.07380   0.00001   0.00000   0.00051   0.00052  -0.07329
   D14        3.02359  -0.00237   0.00000  -0.02560  -0.02569   2.99789
   D15        2.93679   0.00223   0.00000   0.02446   0.02453   2.96132
   D16        0.04038  -0.00173   0.00000  -0.01544  -0.01532   0.02506
[...]
 16,-0.00013071,0.00792535,0.00364346,-0.00115095,-0.01939291,0.0113593
 8,0.00352291,0.00428085,0.01075530,-0.00062561,-0.00073361,-0.00618235
 ,-0.00140101,-0.00341098,-0.00228204,0.00057684,-0.20324453,-0.0059150
 1,-0.01405203,-0.01950426,-0.01547290,-0.00516498,0.00258652,0.0012367
 7,0.00031337,-0.00257971,-0.00659698,0.00024770,0.00303251,0.00268652,
 -0.00045326,0.00007899,0.00313397,0.00016824,0.73735100,-0.00002524,0.
 00003926,0.00001628,0.00006584,-0.00014006,0.00004223,-0.00005239,0.00
 001683,-0.00004144,0.00028741,-0.00359632,0.00019742,0.00460271,-0.003
 89777,0.00009702,0.02520426,0.00738907,0.00210102,0.00616821,-0.003606
 50,-0.00092068,-0.00051226,0.00104185,0.00085368,-0.00204422,0.0017319
 6,-0.00110705,-0.00865260,-0.10046759,0.00450828,-0.02973517,0.0059084
 4,-0.00280589,-0.00463765,-0.00495281,-0.00003063,-0.00100724,0.001601
 86,-0.00025621,-0.00076327,-0.00082424,0.00019235,0.00020207,-0.000326
 55,0.00001661,-0.16477476,0.61265220,0.00082794,-0.00025594,-0.0001853
 1,-0.00107201,0.00000773,-0.00102958,0.00017356,0.00001298,0.00013241,
 0.00087276,0.00006247,-0.00107873,0.00018973,0.00083549,0.00747005,-0.
 00247464,-0.00255517,0.00080172,0.00206683,0.00092054,-0.00360173,-0.0
 0002056,-0.00191575,-0.00004676,-0.00153915,0.00107512,-0.00117959,-0.
 02464448,0.00991385,-0.08117850,0.00202507,-0.00008897,0.00266156,-0.0
 0064243,0.00058593,0.00810118,-0.00032934,-0.00066813,0.00039659,0.000
 35115,0.00018718,-0.00027420,0.00002937,0.00026598,0.00003042,-0.05849
 520,0.24192936,0.38161147,-0.00223260,0.00042535,0.00048110,0.00431992
 ,0.00000124,0.00057546,-0.00166460,-0.00017144,-0.00085566,-0.00176611
 ,0.00219993,0.00017726,-0.00420820,0.00076396,-0.00143092,-0.00384543,
 -0.00662878,-0.00088122,-0.00154078,-0.00595700,0.00120635,0.00013606,
 0.00317996,0.00066598,0.00106972,0.00142823,-0.00096748,-0.03722212,0.
 03972453,0.01940454,-0.00106071,0.00376038,0.00139838,0.00091378,-0.00
 105540,-0.00140269,0.00131636,0.00322369,-0.00002754,-0.00143599,-0.00
 125588,0.00021289,-0.00002420,-0.00151143,-0.00011061,-0.33618347,0.23
 279901,0.13749633,0.34830626,0.00093090,-0.00020366,-0.00016295,-0.001
 78853,0.00010130,-0.00034011,0.00070418,0.00005785,0.00037097,0.000330
 97,0.00013371,-0.00019935,0.00095131,0.00040825,0.00088239,-0.00114853
 ,0.00237141,0.00067710,-0.00022638,0.00264587,-0.00093514,0.00005031,-
 0.00142075,-0.00024633,0.00007841,-0.00081711,0.00072580,0.02188706,0.
 00319420,-0.01119914,-0.00181966,-0.00473565,-0.00014062,0.00107205,0.
 00105289,0.00087384,-0.00019450,-0.00132344,0.00013487,0.00052463,0.00
 053218,-0.00011258,-0.00005380,0.00055676,0.00003330,0.24584617,-0.344
 23201,-0.16134168,-0.28959437,0.40921556,0.00012074,-0.00000266,-0.000
 01615,-0.00027784,0.00002579,0.00000202,0.00012866,0.00001031,0.000086
 06,-0.00016799,0.00009539,0.00009023,0.00036118,-0.00092109,-0.0009530
 6,0.00108347,0.00236446,0.00185092,-0.00072894,0.00105535,0.00021095,0
 .00005102,-0.00034015,-0.00017983,0.00029756,-0.00049619,0.00059712,0.
 00890214,-0.00984261,0.01566714,-0.00234377,-0.00198521,-0.00043046,0.
 00046388,0.00019564,-0.00052529,-0.00012709,-0.00042396,0.00001558,0.0
 0018160,0.00016202,-0.00000424,-0.00000811,0.00019275,0.00002781,0.147
 47401,-0.16141709,-0.17577432,-0.17313088,0.23963711,0.18522039,-0.001
 49486,0.00028403,0.00035933,0.00303144,-0.00003861,0.00011361,-0.00121
 563,-0.00011799,-0.00058556,-0.00117718,-0.00001624,-0.00003574,-0.000
 70064,-0.00037479,0.00076984,-0.00006333,-0.00261059,-0.00186878,-0.00
 066893,-0.00314181,-0.00044108,-0.00006320,0.00177772,0.00026119,0.000
 17970,0.00304384,-0.00220882,-0.02312953,-0.03474949,-0.02873348,-0.00
 571811,0.00429843,-0.00130225,-0.00143560,-0.00222417,0.00131770,0.000
 65676,0.00277260,0.00003312,-0.00133934,-0.00121334,0.00014904,-0.0000
 0328,-0.00116166,-0.00005463,-0.15532044,-0.04582320,-0.04628555,0.036
 43832,0.01539178,0.01194936,0.63601820,-0.00066522,0.00011998,0.000152
 08,0.00130497,0.00003854,0.00002787,-0.00053587,-0.00005652,-0.0002534
 5,-0.00039115,0.00070588,-0.00003397,-0.00152868,-0.00019933,0.0004361
 9,0.00109224,-0.00243576,-0.00064532,-0.00287686,-0.00169914,0.0017771
 1,0.00070464,0.00046635,-0.00007567,0.00486999,-0.00275219,0.00344160,
 -0.01114528,-0.00086454,-0.01057612,-0.00021205,0.00161651,0.00005376,
 -0.00011678,-0.00017994,0.00037035,0.00037033,0.00085937,-0.00002085,-
 0.00044258,-0.00037768,0.00006185,-0.00004659,-0.00040003,-0.00002063,
 -0.03420606,-0.16592678,-0.08100141,0.01575527,-0.07076413,-0.07383020
 ,0.01791071,0.27522174,-0.00070794,0.00014777,0.00018487,0.00138472,-0
 .00000241,0.00010087,-0.00052857,-0.00005216,-0.00024981,-0.00060944,0
 .00026216,0.00003192,-0.00059506,-0.00043256,-0.00029443,0.00099203,-0
 .00097136,-0.00079953,0.00028173,-0.00069432,-0.00162023,-0.00004173,0
 .00098389,0.00073308,-0.00264307,0.00327913,-0.00204348,-0.01014650,-0
 .01458717,0.00109064,-0.00210544,0.00238525,0.00058365,-0.00015029,-0.
 00092553,-0.00026672,0.00036243,0.00118987,-0.00009795,-0.00058646,-0.
 00049486,0.00011734,-0.00002491,-0.00050465,0.00000106,-0.03685745,-0.
 07903599,-0.12845343,0.01411355,-0.07351298,-0.02541779,0.06562081,0.1
 7479828,0.18320298,0.00049954,0.00249166,0.00956592,-0.01881946,-0.002
 84582,-0.01375288,-0.48129086,0.01134401,-0.00794544,0.00049160,-0.000
 37258,-0.00176161,0.00035567,0.00020991,-0.00024625,-0.00023056,0.0001
 2207,0.00016734,-0.00005692,-0.00014159,0.00000969,0.00000929,0.000075
 21,0.00001094,0.00003566,0.00004600,-0.00002662,0.00021999,-0.00010645
 ,-0.00001702,0.00000013,0.00000918,0.00013029,0.00003668,-0.00003572,0
 .00005137,-0.00066973,0.00027169,0.00006981,0.00058949,-0.00070624,0.0
 0027906,0.00022576,-0.00025322,-0.00008507,-0.00024326,0.00000250,-0.0
 0004211,0.00010876,-0.00005047,-0.00000723,0.00007034,0.00003456,0.000
 03351,0.49866938,0.00100576,-0.00392290,0.00258227,-0.01309762,0.00113
 009,-0.00224265,0.02320009,-0.01703942,-0.00705907,-0.00101575,0.00559
 292,-0.00254744,0.00064762,-0.00019622,0.00036284,0.00034262,0.0001661
 9,-0.00001596,0.00006585,-0.00002175,-0.00001820,-0.00000515,-0.000011
 54,0.00000085,0.00001225,0.00002410,-0.00000506,-0.00017409,0.00029826
 ,0.00000801,-0.00035185,-0.00003145,0.00022625,-0.00046417,-0.00067037
 ,-0.00027949,0.00007281,0.00014954,-0.00009677,-0.00012047,-0.00005644
 ,0.00010671,-0.00002342,-0.00002655,-0.00005865,0.00018864,0.00000630,
 0.00001005,-0.00007496,0.00003087,-0.00000158,-0.00005399,-0.00002976,
 -0.00002861,-0.01009726,0.01470486,0.00441941,0.00249788,0.00474107,-0
 .05332198,-0.00044081,-0.00846177,0.03708111,-0.00817296,-0.04314046,-
 0.00099332,-0.00268892,-0.00400564,-0.00067428,0.00019583,-0.00006664,
 -0.00015891,-0.00019590,0.00027517,-0.00002764,0.00010331,-0.00001633,
 0.00000172,-0.00004943,-0.00001429,-0.00002897,-0.00004074,0.00001930,
 0.00000591,0.00000210,-0.00004095,-0.00007992,0.00001519,0.00020613,0.
 00004175,-0.00000790,0.00016624,-0.00040764,-0.00008014,-0.00009217,0.
 00038852,-0.00013874,0.00002116,0.00012429,-0.00002694,-0.00001677,0.0
 0007580,0.00000426,-0.00002428,-0.00003094,0.00000872,0.00000249,-0.00
 003027,-0.00001079,-0.00000937,0.01361505,0.00903526,0.05056715,0.0001
 3758,0.00010278,-0.00019012,0.00034555,-0.00159333,0.00033761,0.000189
 23,0.00004010,0.00011215,0.01159970,-0.01457912,0.00082233,-0.14743080
 ,0.13295253,-0.01010296,-0.01268739,0.02513093,-0.00179216,-0.00055802
 ,0.00168547,0.00083278,0.00083494,-0.00045278,-0.00023205,0.00001229,-
 0.00010953,-0.00016488,-0.00491488,-0.00162642,-0.00083300,-0.00046119
 ,-0.00070478,0.00003532,-0.00122226,-0.00286337,-0.00024313,0.00070345
 ,-0.00034682,0.00001629,-0.00007225,-0.00002211,-0.00000103,-0.0000984
 3,-0.00043188,-0.00000194,0.00092235,0.00113654,-0.00004165,-0.0009549
 9,0.00023595,0.00023918,-0.00028972,-0.00018685,-0.00008307,-0.0000082
 2,-0.00001959,0.00000900,0.15389208,-0.00036651,0.00038966,0.00041894,
 0.00163920,-0.00027107,-0.00054091,-0.00026612,-0.00007255,-0.00009231
 ,0.01424371,-0.01717316,0.00160002,0.13288278,-0.26109816,0.01511480,-
 0.00327907,0.00656833,-0.00019126,-0.00121343,-0.00090946,-0.00051126,
 -0.00058806,0.00029987,0.00047464,0.00010768,0.00022588,-0.00007199,-0
 .00140307,0.00079811,-0.00005962,-0.00068003,0.00011379,-0.00005735,-0
 .00324431,-0.00270345,0.00012681,0.00120948,0.00020159,-0.00001931,-0.
 00030898,-0.00015871,0.00003270,-0.00013118,-0.00068927,-0.00001107,-0
 .00018706,0.00032998,-0.00013179,-0.00013187,0.00000167,0.00007199,0.0
 0000512,-0.00000142,0.00003660,-0.00004455,-0.00007031,-0.00002006,-0.
 13837200,0.27421136,0.00099197,-0.00043743,-0.00005378,0.00011749,-0.0
 0024012,-0.00388625,-0.00075898,-0.00006907,-0.00016217,-0.00040956,-0
 .00068926,0.00484582,-0.01045378,0.01566399,-0.04061319,-0.00067165,0.
 00253875,0.00453301,0.00004837,-0.00095447,-0.00413445,0.00006800,-0.0
 0063992,0.00019488,0.00063956,0.00071329,-0.00019667,-0.00031330,0.000
 03458,0.00644356,0.00033013,0.00011074,-0.00113958,-0.00084926,0.00021
 289,0.00679442,0.00000417,-0.00012313,0.00031893,0.00005423,0.00004830
 ,0.00001198,0.00000258,0.00004550,-0.00012792,-0.00007233,-0.00008408,
 0.00051952,-0.00014888,-0.00000248,-0.00020051,0.00000462,0.00003041,-
 0.00003007,-0.00004391,-0.00000294,-0.00011751,0.01128580,-0.01607745,
 0.02764605,0.00001249,-0.00000358,-0.00000412,-0.00002817,0.00001125,0
 .00002789,0.00002335,0.00000538,0.00000286,0.00013111,-0.00004175,-0.0
 0033151,0.00015974,0.00019781,0.00001214,0.00052532,-0.00103416,0.0050
 5421,-0.01864040,-0.03514302,0.00852329,0.00321952,0.00140093,-0.00756
 451,-0.08027467,-0.13102074,0.01538243,-0.00022794,-0.00000423,-0.0000
 8232,-0.00009796,-0.00013478,-0.00039379,0.00003092,-0.00013977,0.0000
 3840,0.00006154,0.00011968,0.00006429,-0.00004778,-0.00002692,-0.00001
 163,0.00000264,-0.00003302,-0.00000960,0.00010597,-0.00083268,0.000323
 84,-0.00005649,0.00007809,0.00003906,-0.00024252,0.00035015,-0.0003362
 7,-0.00000061,-0.00000022,0.00000504,-0.00006873,-0.00001617,0.0001484
 3,0.09535164,0.00008317,-0.00001708,-0.00001944,-0.00015490,-0.0000023
 6,-0.00005101,0.00004178,0.00000420,0.00003067,-0.00008938,-0.00022340
 ,0.00001833,0.00020968,0.00008713,0.00048735,-0.00104324,0.00184089,-0
 .00077394,-0.00928621,-0.00210460,0.00842752,0.00534913,-0.00285184,-0
 .00481044,-0.16142608,-0.43049244,-0.00255368,0.00025975,0.00014794,-0
 .00026077,0.00013042,0.00012600,0.00007099,-0.00005849,0.00040915,0.00
 001629,-0.00019361,-0.00036210,-0.00002415,0.00015336,0.00010306,-0.00
 000698,-0.00000813,0.00014206,0.00001160,0.00020667,-0.00035183,-0.000
 23288,-0.00015756,0.00015938,0.00008909,-0.00027129,0.00037570,-0.0001
 8181,-0.00000633,0.00000126,-0.00000215,0.00000108,0.00003652,-0.00007
 128,0.16617492,0.43292579,0.00004455,-0.00002360,-0.00002569,-0.000078
 68,0.00010487,0.00001381,0.00004548,-0.00000130,0.00001819,0.00045319,
 -0.00013034,0.00010081,0.00031894,0.00128799,-0.00019411,0.00527547,-0
 .00173413,-0.00027690,0.01914355,0.03803082,-0.00370332,-0.00563645,-0
 .00105969,0.00083263,0.00190791,-0.03578337,-0.03241700,-0.00034470,-0
 .00042316,0.00023912,0.00004480,0.00010885,0.00000733,-0.00013099,-0.0
 0013811,-0.00003789,0.00005920,0.00012738,0.00000093,-0.00005395,-0.00
 002579,0.00000043,0.00000562,-0.00003448,-0.00000559,-0.00001365,0.000
 18326,-0.00000598,0.00000628,-0.00005601,-0.00003493,-0.00010234,-0.00
 017451,-0.00008005,-0.00000097,-0.00000777,0.00000604,-0.00002345,-0.0
 0004917,0.00000742,-0.02088603,-0.00021224,0.03558737,-0.00073651,-0.0
 0007428,0.00036575,0.00098340,0.00128185,-0.00011692,-0.00039596,-0.00
 015630,-0.00018986,-0.00514557,-0.00144289,-0.00072617,-0.00025601,-0.
 00056367,0.00005462,-0.00126461,-0.00317992,-0.00016569,0.00083180,-0.
 00006803,0.00019083,-0.00015048,-0.00045976,-0.00022846,-0.00015216,-0
 .00009030,0.00002097,0.01203937,-0.01302044,0.00084187,-0.14946463,0.1
 3545999,-0.01283801,-0.01152487,0.02517484,-0.00193108,-0.00043939,0.0
 0143469,0.00049548,0.00060538,-0.00006573,-0.00019147,0.00020776,-0.00
 011955,-0.00030062,-0.00078253,-0.00089822,0.00037526,-0.00024901,-0.0
 0053529,-0.00041918,0.00033317,0.00013153,0.00024683,0.00001268,-0.000
 04871,-0.00001247,0.00005607,0.00006873,0.00004463,-0.00000447,0.00001
 835,-0.00000150,0.15503567,-0.00019421,-0.00005296,0.00013191,0.000103
 71,0.00045272,-0.00008038,-0.00008373,-0.00005503,-0.00005450,-0.00189
 454,0.00094766,0.00003183,-0.00064819,0.00013496,-0.00008204,-0.002982
 17,-0.00299407,0.00035477,0.00111835,0.00035953,0.00009257,-0.00015216
 ,-0.00065906,-0.00025727,-0.00022929,-0.00016131,0.00007859,0.01453666
 ,-0.01724274,0.00165659,0.13573493,-0.26079350,0.01744447,-0.00261200,
 0.00706272,-0.00017602,0.00082163,-0.00094370,-0.00025144,-0.00006696,
 0.00029516,-0.00003685,-0.00283494,-0.00171193,-0.00025511,0.00164875,
 -0.00095863,-0.00082306,0.00026608,0.00140829,0.00032376,0.00001457,0.
 00024383,0.00023903,0.00000626,-0.00001834,0.,0.00006640,-0.00000979,-
 0.00001936,-0.00000951,0.00002318,-0.00000180,-0.14249025,0.27459782,-
 0.00024014,-0.00011705,0.00000668,0.00006577,0.00004368,0.00038496,0.0
 0002569,0.00008818,0.00000065,-0.00042898,0.00057484,0.00618551,-0.000
 23033,-0.00033263,-0.00137636,-0.00036868,-0.00010501,0.00652204,0.000
 13291,-0.00004372,0.00032990,0.00008833,0.00009560,-0.00011185,-0.0000
 5196,0.00002732,-0.00002914,-0.00154620,0.00011160,0.00554226,-0.01314
 030,0.01802274,-0.04266466,-0.00019527,0.00182548,0.00456067,0.0000450
 7,-0.00042066,-0.00434587,0.00052104,0.00017051,0.00055669,-0.00021591
 ,-0.00043791,0.00064623,0.00141805,-0.00053874,-0.00427682,0.00045370,
 -0.00012685,0.00031076,-0.00081705,-0.00037731,-0.00017048,-0.00000368
 ,0.00002789,-0.00000703,0.00003290,-0.00001487,-0.00058376,0.00001106,
 0.00002205,-0.00000802,0.01431632,-0.01830411,0.02861579,-0.00013875,-
 0.00001074,0.00003760,0.00031523,0.00003823,0.00003553,-0.00007444,-0.
 00002593,-0.00002140,0.00066199,0.00054390,0.00001850,-0.00005537,0.00
 024150,-0.00012411,-0.00007055,0.00003859,0.00003088,-0.00005028,-0.00
 016621,0.00003854,0.00000026,0.00008216,0.00000221,0.00003976,0.000046
 99,-0.00002672,0.00019170,-0.00014792,-0.00006081,-0.00050205,-0.00004
 704,-0.00008733,-0.00264014,0.00330195,0.00136002,0.01988110,0.0307394
 2,-0.00211368,-0.00168819,-0.00266007,-0.00052614,-0.17300708,-0.22506
 076,0.02368913,-0.00004429,0.00002205,-0.00001275,0.00002349,-0.000017
 64,-0.00000598,0.00001709,0.00000799,0.00000747,0.00000078,0.00000641,
 -0.00000348,0.00004286,0.00006847,0.00000320,0.00000245,-0.00000568,0.
 00000137,0.00044836,-0.00006674,0.00010157,0.15664702,-0.00016926,0.00
 020835,0.00006063,0.00026021,-0.00055867,0.00009875,-0.00014727,0.0001
 9852,-0.00017687,-0.00040299,-0.00073597,-0.00022569,0.00046828,0.0000
 1770,0.00007306,-0.00002322,0.00031259,0.00000101,-0.00016439,-0.00033
 693,0.00002495,0.00001056,0.00019346,0.00002864,0.00009258,0.00010213,
 -0.00005669,-0.00006844,0.00006375,-0.00006044,0.00062414,0.00080786,0
 .00013243,0.00356072,-0.00058601,-0.00053036,-0.00961317,-0.04782328,0
 .00034530,-0.00827058,0.00786216,0.00198589,-0.17885256,-0.35390836,0.
 02495480,-0.00028198,0.00000791,-0.00003368,0.00013140,-0.00003498,-0.
 00001464,0.00010378,0.00003914,0.00004837,0.00004491,-0.00000393,0.000
 01586,-0.00003481,-0.00002119,0.00001576,0.00000301,-0.00001376,0.0000
 0421,-0.00033574,0.00009270,-0.00000830,0.19307326,0.39411706,-0.00004
 727,0.00003559,-0.00001856,0.00001299,-0.00003091,0.00018521,0.0000016
 9,0.00003464,-0.00003235,-0.00030248,-0.00057647,0.00041856,0.00034448
 ,0.00003062,-0.00032379,-0.00014609,0.00016148,0.00004840,-0.00005767,
 -0.00009781,-0.00000287,-0.00000019,0.00003948,0.00000754,0.00002968,0
 .00002711,-0.00001430,-0.00003655,-0.00025063,0.00006029,0.00007972,0.
 00023965,-0.00018122,0.00152608,-0.00060186,0.00448363,-0.00367005,-0.
 00759819,0.00340210,-0.00059830,0.00094085,-0.00447719,0.02509774,0.03
 436686,-0.01805664,0.00000327,-0.00000284,0.00001372,0.00000954,0.0000
 0025,-0.00001113,-0.00000208,0.00000188,-0.00001310,0.00000278,0.00000
 107,0.00000716,-0.00001664,-0.00002519,-0.00006184,0.00000464,-0.00000
 335,0.00000253,0.00010884,-0.00000701,-0.00017518,-0.02234414,-0.02668
 399,0.01473484,0.00012034,-0.00002449,-0.00002573,-0.00024334,0.000003
 49,-0.00001675,0.00009822,0.00001044,0.00004892,0.00015289,-0.00014663
 ,-0.00002562,0.00016753,0.00010281,0.00006142,0.00018444,0.00013639,0.
 00031043,-0.00050588,0.00057326,-0.00001358,0.00009735,-0.00024440,-0.
 00008897,0.00021343,-0.00040931,0.00031026,0.00138925,-0.00105490,-0.0
 0092238,0.00015330,0.00009145,-0.00044470,-0.00005314,0.00000904,0.000
 08709,-0.00008490,-0.00014570,0.00005356,0.00006710,0.00005502,-0.0000
 2444,0.00000543,0.00007633,-0.00000006,-0.01759600,-0.01073170,-0.0091
 3197,-0.00018795,0.00734736,0.00592516,-0.48388269,0.00982158,-0.02762
 689,-0.00000613,0.00000522,0.00000220,0.00003081,0.00000721,-0.0000215
 4,0.00006308,0.00007257,-0.00003365,0.00001253,-0.00005264,0.00002611,
 -0.00000094,-0.00000845,0.,0.49980527,-0.00006590,0.00000929,0.0000124
 4,0.00014971,0.00001458,-0.00003079,-0.00007019,-0.00000782,-0.0000268
 9,-0.00005458,0.00000755,-0.00003238,-0.00014533,-0.00001842,0.0002981
 2,-0.00000688,-0.00027303,0.00007987,-0.00094784,0.00061495,-0.0006270
 4,0.00011447,-0.00009751,0.00004819,0.00018722,-0.00027901,0.00037107,
 -0.00097193,-0.00086072,-0.00491523,-0.00013775,0.00018405,-0.00004280
 ,-0.00009962,0.00009412,0.00035593,-0.00002907,0.00002242,-0.00001826,
 -0.00000643,-0.00002714,0.00000196,0.00000383,-0.00001908,0.00000622,-
 0.04157019,-0.00144457,-0.00675823,0.00287968,0.00166154,0.00505172,0.
 04619461,-0.03399979,-0.01194594,0.00000227,-0.00000539,-0.00000292,-0
 .00000839,0.00000177,-0.00000325,0.00009933,0.00003716,0.00000806,-0.0
 0002090,-0.00001751,-0.00018273,-0.00000219,-0.00000025,-0.00000121,-0
 .00549392,0.03440280,0.00007267,-0.00001837,-0.00001683,-0.00015255,0.
 00001385,-0.00000253,0.00006233,0.00000623,0.00002512,0.00012565,0.000
 20741,0.00000776,-0.00016393,-0.00000051,-0.00003221,0.00060745,0.0001
 6884,0.00010150,-0.00003070,0.00010167,-0.00004600,0.00005051,-0.00005
 752,-0.00002222,0.00007628,0.00013510,-0.00014588,-0.00004385,-0.00541
 770,0.00148541,-0.00152505,0.00005631,-0.00020940,0.00021807,-0.000576
 17,-0.00007159,-0.00006866,0.00003199,-0.00000343,-0.00003824,-0.00002
 982,0.00000803,0.00000039,-0.00000170,-0.00000475,-0.03545848,-0.00390
 114,-0.00462940,0.00278546,0.00503185,-0.00053376,0.00188899,-0.014131
 16,-0.02649998,-0.00000299,0.00000298,0.00000129,0.00000274,-0.0000028
 8,-0.00000790,-0.00001781,0.00003022,-0.00002712,0.00006003,-0.0000045
 5,0.00008705,0.00000054,0.00000099,0.00000419,0.03155113,0.01835407,0.
 03053265\\-0.00000373,0.00000590,0.00001495,0.00001090,-0.00002492,-0.
 00003197,0.00000732,0.00000362,0.00002308,-0.00000050,0.00000208,0.000
 00047,0.00000937,-0.00000195,-0.00000353,-0.00001760,0.00001211,-0.000
 00439,0.00001563,-0.00000564,0.00000550,-0.00000839,0.00000228,-0.0000
 0737,-0.00000958,0.00000204,-0.00000739,0.00000366,-0.00000721,0.00000
 427,0.00000474,0.00000141,-0.00000383,-0.00001712,0.00001469,0.0000017
 1,0.00000560,0.00000384,0.00001160,-0.00000154,0.00000089,0.00000063,0
 .00000585,-0.00000437,0.00000264,-0.00000083,0.00001166,-0.00000671,0.
 00000285,-0.00000026,0.00000245,-0.00000003,-0.00000362,-0.00000083,-0
 .00000600,-0.00000694,-0.00000123,-0.00000343,-0.00000082,-0.00000243,
 -0.00000233,-0.00000051,-0.00000477,0.00000137,0.00000125,0.00000366,0
 .00000317,-0.00001043,0.00000548,0.00000060,0.00000491,-0.00000199\\\@
 The archive entry for this job was punched.


 MUD THROWN IS GROUND LOST -- FROM A TEA BAG
 Job cpu time:       0 days  1 hours 23 minutes  2.6 seconds.
 Elapsed time:       0 days  0 hours 21 minutes  0.3 seconds.
 File lengths (MBytes):  RWF=    506 Int=      0 D2E=      0 Chk=     23 Scr=      1
 Normal termination of Gaussian 16 at Tue Nov 25 04:54:40 2025.
