 Entering Gaussian System, Link 0=g16
 Input=sub_88-99-3.gjf
 Output=sub_88-99-3.log
 Initial command:
 /apps/t4/rhel9/isv/gaussian/G16C02/g16/l1.exe "/local/5761430/Gau-1004352.inp" -scrdir="/local/5761430/"
 Default CPUs for threads: 12-15
 Default is to use a total of   4 processors:
                                4 via shared-memory
                                1 via Linda
 Entering Link 1 = /apps/t4/rhel9/isv/gaussian/G16C02/g16/l1.exe PID=   1004392.
  
 Copyright (c) 1988-2021, Gaussian, Inc.  All Rights Reserved.
  
 This is part of the Gaussian(R) 16 program.  It is based on
 the Gaussian(R) 09 system (copyright 2009, Gaussian, Inc.),
 the Gaussian(R) 03 system (copyright 2003, Gaussian, Inc.),
 the Gaussian(R) 98 system (copyright 1998, Gaussian, Inc.),
 the Gaussian(R) 94 system (copyright 1995, Gaussian, Inc.),
 the Gaussian 92(TM) system (copyright 1992, Gaussian, Inc.),
 the Gaussian 90(TM) system (copyright 1990, Gaussian, Inc.),
 the Gaussian 88(TM) system (copyright 1988, Gaussian, Inc.),
 the Gaussian 86(TM) system (copyright 1986, Carnegie Mellon
 University), and the Gaussian 82(TM) system (copyright 1983,
 Carnegie Mellon University). Gaussian is a federally registered
 trademark of Gaussian, Inc.
  
 This software contains proprietary and confidential information,
 including trade secrets, belonging to Gaussian, Inc.
  
 This software is provided under written license and may be
 used, copied, transmitted, or stored only in accord with that
 written license.
  
 The following legend is applicable only to US Government
 contracts under FAR:
  
                    RESTRICTED RIGHTS LEGEND
  
 Use, reproduction and disclosure by the US Government is
 subject to restrictions as set forth in subparagraphs (a)
 and (c) of the Commercial Computer Software - Restricted
 Rights clause in FAR 52.227-19.
  
 Gaussian, Inc.
 340 Quinnipiac St., Bldg. 40, Wallingford CT 06492
  
  
 ---------------------------------------------------------------
 Warning -- This program may not be used in any manner that
 competes with the business of Gaussian, Inc. or will provide
 assistance to any competitor of Gaussian, Inc.  The licensee
 of this program is prohibited from giving any competitor of
 Gaussian, Inc. access to this program.  By using this program,
 the user acknowledges that Gaussian, Inc. is engaged in the
 business of creating and licensing software in the field of
 computational chemistry and represents and warrants to the
 licensee that it is not a competitor of Gaussian, Inc. and that
 it will not use this program in any manner prohibited above.
 ---------------------------------------------------------------
  

 Cite this work as:
 Gaussian 16, Revision C.02,
 M. J. Frisch, G. W. Trucks, H. B. Schlegel, G. E. Scuseria, 
 M. A. Robb, J. R. Cheeseman, G. Scalmani, V. Barone, 
 G. A. Petersson, H. Nakatsuji, X. Li, M. Caricato, A. V. Marenich, 
 J. Bloino, B. G. Janesko, R. Gomperts, B. Mennucci, H. P. Hratchian, 
 J. V. Ortiz, A. F. Izmaylov, J. L. Sonnenberg, D. Williams-Young, 
 F. Ding, F. Lipparini, F. Egidi, J. Goings, B. Peng, A. Petrone, 
 T. Henderson, D. Ranasinghe, V. G. Zakrzewski, J. Gao, N. Rega, 
 G. Zheng, W. Liang, M. Hada, M. Ehara, K. Toyota, R. Fukuda, 
 J. Hasegawa, M. Ishida, T. Nakajima, Y. Honda, O. Kitao, H. Nakai, 
 T. Vreven, K. Throssell, J. A. Montgomery, Jr., J. E. Peralta, 
 F. Ogliaro, M. J. Bearpark, J. J. Heyd, E. N. Brothers, K. N. Kudin, 
 V. N. Staroverov, T. A. Keith, R. Kobayashi, J. Normand, 
 K. Raghavachari, A. P. Rendell, J. C. Burant, S. S. Iyengar, 
 J. Tomasi, M. Cossi, J. M. Millam, M. Klene, C. Adamo, R. Cammi, 
 J. W. Ochterski, R. L. Martin, K. Morokuma, O. Farkas, 
 J. B. Foresman, and D. J. Fox, Gaussian, Inc., Wallingford CT, 2019.
 
 ******************************************
 Gaussian 16:  ES64L-G16RevC.02  7-Dec-2021
                25-Nov-2025 
 ******************************************
 %mem=4GB
 %chk=sub_88-99-3.chk
 SetSPE:  set environment variable "OMP_PROC_BIND" = "true"
 SetSPE:  set environment variable "OMP_PLACES" = "{12},{13},{14},{15}"
 ------------------------------------------------------------
 #p opt freq rcam-b3lyp/6-311+g(d,p) scrf=(smd,solvent=water)
 ------------------------------------------------------------
 1/18=20,19=15,26=3,38=1/1,3;
 2/9=110,12=2,17=6,18=5,40=1/2;
 3/5=4,6=6,7=111,11=2,25=1,30=1,70=32201,71=1,72=1,74=-40,116=1/1,2,3;
 4//1;
 5/5=2,38=5,53=1/2;
 6/7=2,8=2,9=2,10=2,28=1/1;
 7//1,2,3,16;
 1/18=20,19=15,26=3/3(2);
 2/9=110/2;
 99//99;
 2/9=110/2;
 3/5=4,6=6,7=111,11=2,25=1,30=1,70=32205,71=1,72=1,74=-40,116=1/1,2,3;
 4/5=5,16=3,69=1/1;
 5/5=2,38=5,53=1/2;
 7//1,2,3,16;
 1/18=20,19=15,26=3/3(-5);
 2/9=110/2;
 6/7=2,8=2,9=2,10=2,19=2,28=1/1;
 99/9=1/99;
 Leave Link    1 at Tue Nov 25 03:43:18 2025, MaxMem=   536870912 cpu:               0.0 elap:               0.0
 (Enter /apps/t4/rhel9/isv/gaussian/G16C02/g16/l101.exe)
 -------
 no comm
 -------
 Symbolic Z-matrix:
 Charge =  0 Multiplicity = 1
 O                    -0.56609   3.50793   0.42972 
 C                    -0.19161   2.53008  -0.17891 
 O                     0.74543   2.57909  -1.1268 
 C                    -0.76983   1.16987   0. 
 C                    -2.17207   1.1031   -0.1351 
 C                    -2.80137  -0.13882  -0.22551 
 C                    -2.04697  -1.30877  -0.18099 
 C                    -0.65777  -1.24174  -0.06965 
 C                     0.        0.        0. 
 C                     1.48879   0.        0. 
 O                     2.1636   -0.78059  -0.63416 
 O                     2.01144   0.91204   0.82097 
 H                     1.0995    3.48256  -1.18285 
 H                    -2.78442   1.9968   -0.13874 
 H                    -3.8785   -0.19389  -0.31718 
 H                    -2.53845  -2.27101  -0.24581 
 H                    -0.09238  -2.16578  -0.07029 
 H                     2.98112   0.87964   0.76238 
 
 ITRead=  0  0  0  0  0  0  0  0  0  0  0  0  0  0  0  0  0  0
 MicOpt= -1 -1 -1 -1 -1 -1 -1 -1 -1 -1 -1 -1 -1 -1 -1 -1 -1 -1
 NAtoms=     18 NQM=       18 NQMF=       0 NMMI=      0 NMMIF=      0
                NMic=       0 NMicF=      0.
                    Isotopes and Nuclear Properties:
 (Nuclear quadrupole moments (NQMom) in fm**2, nuclear magnetic moments (NMagM)
  in nuclear magnetons)

  Atom         1           2           3           4           5           6           7           8           9          10
 IAtWgt=          16          12          16          12          12          12          12          12          12          12
 AtmWgt=  15.9949146  12.0000000  15.9949146  12.0000000  12.0000000  12.0000000  12.0000000  12.0000000  12.0000000  12.0000000
 NucSpn=           0           0           0           0           0           0           0           0           0           0
 AtZEff=  -0.0000000  -0.0000000  -0.0000000  -0.0000000  -0.0000000  -0.0000000  -0.0000000  -0.0000000  -0.0000000  -0.0000000
 NQMom=    0.0000000   0.0000000   0.0000000   0.0000000   0.0000000   0.0000000   0.0000000   0.0000000   0.0000000   0.0000000
 NMagM=    0.0000000   0.0000000   0.0000000   0.0000000   0.0000000   0.0000000   0.0000000   0.0000000   0.0000000   0.0000000
 AtZNuc=   8.0000000   6.0000000   8.0000000   6.0000000   6.0000000   6.0000000   6.0000000   6.0000000   6.0000000   6.0000000

  Atom        11          12          13          14          15          16          17          18
 IAtWgt=          16          16           1           1           1           1           1           1
 AtmWgt=  15.9949146  15.9949146   1.0078250   1.0078250   1.0078250   1.0078250   1.0078250   1.0078250
 NucSpn=           0           0           1           1           1           1           1           1
 AtZEff=  -0.0000000  -0.0000000  -0.0000000  -0.0000000  -0.0000000  -0.0000000  -0.0000000  -0.0000000
 NQMom=    0.0000000   0.0000000   0.0000000   0.0000000   0.0000000   0.0000000   0.0000000   0.0000000
 NMagM=    0.0000000   0.0000000   2.7928460   2.7928460   2.7928460   2.7928460   2.7928460   2.7928460
 AtZNuc=   8.0000000   8.0000000   1.0000000   1.0000000   1.0000000   1.0000000   1.0000000   1.0000000
 Leave Link  101 at Tue Nov 25 03:43:20 2025, MaxMem=   536870912 cpu:               0.1 elap:               0.3
 (Enter /apps/t4/rhel9/isv/gaussian/G16C02/g16/l103.exe)

 GradGradGradGradGradGradGradGradGradGradGradGradGradGradGradGradGradGrad
 Berny optimization.
 Initialization pass.
                           ----------------------------
                           !    Initial Parameters    !
                           ! (Angstroms and Degrees)  !
 --------------------------                            --------------------------
 ! Name  Definition              Value          Derivative Info.                !
 --------------------------------------------------------------------------------
 ! R1    R(1,2)                  1.2111         estimate D2E/DX2                !
 ! R2    R(2,3)                  1.3338         estimate D2E/DX2                !
 ! R3    R(2,4)                  1.4888         estimate D2E/DX2                !
 ! R4    R(3,13)                 0.972          estimate D2E/DX2                !
 ! R5    R(4,5)                  1.4103         estimate D2E/DX2                !
 ! R6    R(4,9)                  1.4004         estimate D2E/DX2                !
 ! R7    R(5,6)                  1.3952         estimate D2E/DX2                !
 ! R8    R(5,14)                 1.0834         estimate D2E/DX2                !
 ! R9    R(6,7)                  1.3928         estimate D2E/DX2                !
 ! R10   R(6,15)                 1.0824         estimate D2E/DX2                !
 ! R11   R(7,8)                  1.3953         estimate D2E/DX2                !
 ! R12   R(7,16)                 1.0824         estimate D2E/DX2                !
 ! R13   R(8,9)                  1.4069         estimate D2E/DX2                !
 ! R14   R(8,17)                 1.0833         estimate D2E/DX2                !
 ! R15   R(9,10)                 1.4888         estimate D2E/DX2                !
 ! R16   R(10,11)                1.2111         estimate D2E/DX2                !
 ! R17   R(10,12)                1.3338         estimate D2E/DX2                !
 ! R18   R(12,18)                0.972          estimate D2E/DX2                !
 ! A1    A(1,2,3)              123.004          estimate D2E/DX2                !
 ! A2    A(1,2,4)              123.8604         estimate D2E/DX2                !
 ! A3    A(3,2,4)              113.0686         estimate D2E/DX2                !
 ! A4    A(2,3,13)             109.3325         estimate D2E/DX2                !
 ! A5    A(2,4,5)              114.7025         estimate D2E/DX2                !
 ! A6    A(2,4,9)              123.3471         estimate D2E/DX2                !
 ! A7    A(5,4,9)              120.4647         estimate D2E/DX2                !
 ! A8    A(4,5,6)              119.7896         estimate D2E/DX2                !
 ! A9    A(4,5,14)             121.5511         estimate D2E/DX2                !
 ! A10   A(6,5,14)             118.6294         estimate D2E/DX2                !
 ! A11   A(5,6,7)              120.089          estimate D2E/DX2                !
 ! A12   A(5,6,15)             119.9744         estimate D2E/DX2                !
 ! A13   A(7,6,15)             119.9316         estimate D2E/DX2                !
 ! A14   A(6,7,8)              120.0985         estimate D2E/DX2                !
 ! A15   A(6,7,16)             119.9264         estimate D2E/DX2                !
 ! A16   A(8,7,16)             119.9703         estimate D2E/DX2                !
 ! A17   A(7,8,9)              120.7863         estimate D2E/DX2                !
 ! A18   A(7,8,17)             118.5963         estimate D2E/DX2                !
 ! A19   A(9,8,17)             120.588          estimate D2E/DX2                !
 ! A20   A(4,9,8)              118.7038         estimate D2E/DX2                !
 ! A21   A(4,9,10)             123.3468         estimate D2E/DX2                !
 ! A22   A(8,9,10)             117.8737         estimate D2E/DX2                !
 ! A23   A(9,10,11)            123.8603         estimate D2E/DX2                !
 ! A24   A(9,10,12)            113.0701         estimate D2E/DX2                !
 ! A25   A(11,10,12)           123.0027         estimate D2E/DX2                !
 ! A26   A(10,12,18)           109.3314         estimate D2E/DX2                !
 ! D1    D(1,2,3,13)             4.2378         estimate D2E/DX2                !
 ! D2    D(4,2,3,13)          -178.6377         estimate D2E/DX2                !
 ! D3    D(1,2,4,5)             53.0103         estimate D2E/DX2                !
 ! D4    D(1,2,4,9)           -140.8752         estimate D2E/DX2                !
 ! D5    D(3,2,4,5)           -124.0857         estimate D2E/DX2                !
 ! D6    D(3,2,4,9)             42.0288         estimate D2E/DX2                !
 ! D7    D(2,4,5,6)            168.6546         estimate D2E/DX2                !
 ! D8    D(2,4,5,14)           -13.3642         estimate D2E/DX2                !
 ! D9    D(9,4,5,6)              2.1037         estimate D2E/DX2                !
 ! D10   D(9,4,5,14)          -179.9151         estimate D2E/DX2                !
 ! D11   D(2,4,9,8)           -168.4936         estimate D2E/DX2                !
 ! D12   D(2,4,9,10)             8.2709         estimate D2E/DX2                !
 ! D13   D(5,4,9,8)             -3.1453         estimate D2E/DX2                !
 ! D14   D(5,4,9,10)           173.6191         estimate D2E/DX2                !
 ! D15   D(4,5,6,7)              0.0695         estimate D2E/DX2                !
 ! D16   D(4,5,6,15)           179.2582         estimate D2E/DX2                !
 ! D17   D(14,5,6,7)          -177.9705         estimate D2E/DX2                !
 ! D18   D(14,5,6,15)            1.2182         estimate D2E/DX2                !
 ! D19   D(5,6,7,8)             -1.1339         estimate D2E/DX2                !
 ! D20   D(5,6,7,16)           179.6595         estimate D2E/DX2                !
 ! D21   D(15,6,7,8)           179.6771         estimate D2E/DX2                !
 ! D22   D(15,6,7,16)            0.4704         estimate D2E/DX2                !
 ! D23   D(6,7,8,9)              0.0447         estimate D2E/DX2                !
 ! D24   D(6,7,8,17)          -177.9951         estimate D2E/DX2                !
 ! D25   D(16,7,8,9)           179.251          estimate D2E/DX2                !
 ! D26   D(16,7,8,17)            1.2112         estimate D2E/DX2                !
 ! D27   D(7,8,9,4)              2.0836         estimate D2E/DX2                !
 ! D28   D(7,8,9,10)          -174.8589         estimate D2E/DX2                !
 ! D29   D(17,8,9,4)          -179.9157         estimate D2E/DX2                !
 ! D30   D(17,8,9,10)            3.1417         estimate D2E/DX2                !
 ! D31   D(4,9,10,11)         -140.9093         estimate D2E/DX2                !
 ! D32   D(4,9,10,12)           41.9917         estimate D2E/DX2                !
 ! D33   D(8,9,10,11)           35.8803         estimate D2E/DX2                !
 ! D34   D(8,9,10,12)         -141.2187         estimate D2E/DX2                !
 ! D35   D(9,10,12,18)        -178.6339         estimate D2E/DX2                !
 ! D36   D(11,10,12,18)          4.2385         estimate D2E/DX2                !
 --------------------------------------------------------------------------------
 Trust Radius=3.00D-01 FncErr=1.00D-07 GrdErr=1.00D-06 EigMax=2.50D+02 EigMin=1.00D-04
 Number of steps in this run=     90 maximum allowed number of steps=    108.
 GradGradGradGradGradGradGradGradGradGradGradGradGradGradGradGradGradGrad

 Leave Link  103 at Tue Nov 25 03:43:21 2025, MaxMem=   536870912 cpu:               0.0 elap:               0.1
 (Enter /apps/t4/rhel9/isv/gaussian/G16C02/g16/l202.exe)
                          Input orientation:                          
 ---------------------------------------------------------------------
 Center     Atomic      Atomic             Coordinates (Angstroms)
 Number     Number       Type             X           Y           Z
 ---------------------------------------------------------------------
      1          8           0       -0.566088    3.507927    0.429725
      2          6           0       -0.191608    2.530078   -0.178906
      3          8           0        0.745428    2.579090   -1.126805
      4          6           0       -0.769832    1.169874    0.000000
      5          6           0       -2.172071    1.103102   -0.135100
      6          6           0       -2.801367   -0.138820   -0.225508
      7          6           0       -2.046972   -1.308765   -0.180987
      8          6           0       -0.657771   -1.241742   -0.069650
      9          6           0        0.000000    0.000000    0.000000
     10          6           0        1.488787    0.000000    0.000000
     11          8           0        2.163596   -0.780593   -0.634161
     12          8           0        2.011437    0.912041    0.820966
     13          1           0        1.099497    3.482561   -1.182846
     14          1           0       -2.784418    1.996796   -0.138741
     15          1           0       -3.878504   -0.193888   -0.317181
     16          1           0       -2.538445   -2.271012   -0.245809
     17          1           0       -0.092376   -2.165778   -0.070290
     18          1           0        2.981118    0.879640    0.762380
 ---------------------------------------------------------------------
                    Distance matrix (angstroms):
                    1          2          3          4          5
     1  O    0.000000
     2  C    1.211138   0.000000
     3  O    2.237318   1.333773   0.000000
     4  C    2.385931   1.488793   2.356182   0.000000
     5  C    2.946420   2.441395   3.416697   1.410313   0.000000
     6  C    4.327189   3.733099   4.558412   2.427070   1.395191
     7  C    5.076073   4.263696   4.879292   2.794190   2.415545
     8  C    4.776729   3.802088   4.205390   2.415223   2.792075
     9  C    3.579200   2.543623   2.911539   1.400446   2.439872
    10  C    4.088120   3.042537   2.911010   2.543613   3.825828
    11  O    5.193692   4.088373   3.679860   3.579314   4.753459
    12  O    3.679039   2.910532   2.859308   2.911344   4.295614
    13  H    2.318448   1.892636   0.971990   3.200318   4.178846
    14  H    2.743658   2.647389   3.711489   2.182110   1.083362
    15  H    5.023286   4.586100   5.452123   3.409442   2.151105
    16  H    6.143507   5.344398   5.923130   3.876611   3.395752
    17  H    5.715360   4.698160   4.932738   3.404477   3.874907
    18  H    4.427326   3.698128   3.384591   3.838631   5.235528
                    6          7          8          9         10
     6  C    0.000000
     7  C    1.392790   0.000000
     8  C    2.415726   1.395266   0.000000
     9  C    2.813855   2.436333   1.406925   0.000000
    10  C    4.298318   3.774548   2.480824   1.488787   0.000000
    11  O    5.022920   4.267695   2.914008   2.385924   1.211138
    12  O    5.036119   4.733559   3.543537   2.356201   1.333779
    13  H    5.408108   5.819003   5.161999   3.838782   3.698500
    14  H    2.137445   3.387086   3.874988   3.429203   4.718763
    15  H    1.082433   2.148490   3.395938   3.896279   5.380150
    16  H    2.148437   1.082435   2.151131   3.414912   4.629958
    17  H    3.386928   2.137095   1.083288   2.168886   2.682463
    18  H    5.954016   5.564239   4.293489   3.200321   1.892628
                   11         12         13         14         15
    11  O    0.000000
    12  O    2.237311   0.000000
    13  H    4.428075   3.384445   0.000000
    14  H    5.695804   5.009786   4.287476   0.000000
    15  H    6.078789   6.099989   6.248692   2.455191   0.000000
    16  H    4.947864   5.654314   6.871409   4.276231   2.472912
    17  H    2.706676   3.833188   5.878951   4.957701   4.275988
    18  H    2.318415   0.971989   3.754943   5.941504   7.026545
                   16         17         18
    16  H    0.000000
    17  H    2.454616   0.000000
    18  H    6.434954   4.406163   0.000000
 Stoichiometry    C8H6O4
 Framework group  C1[X(C8H6O4)]
 Deg. of freedom    48
 Full point group                 C1      NOp   1
 Largest Abelian subgroup         C1      NOp   1
 Largest concise Abelian subgroup C1      NOp   1
                         Standard orientation:                         
 ---------------------------------------------------------------------
 Center     Atomic      Atomic             Coordinates (Angstroms)
 Number     Number       Type             X           Y           Z
 ---------------------------------------------------------------------
      1          8           0       -1.114651    2.563440   -0.531200
      2          6           0       -0.907137    1.536064    0.075669
      3          8           0       -1.712693    1.085696    1.038580
      4          6           0        0.297650    0.684256   -0.122866
      5          6           0        1.526839    1.366482   -0.010422
      6          6           0        2.717430    0.642582    0.060427
      7          6           0        2.691855   -0.749350    0.018750
      8          6           0        1.474028   -1.424454   -0.070138
      9          6           0        0.259697   -0.715672   -0.119785
     10          6           0       -1.005506   -1.500016   -0.096302
     11          8           0       -1.156683   -2.517912    0.542359
     12          8           0       -1.944467   -1.001580   -0.901833
     13          1           0       -2.488539    1.667176    1.107196
     14          1           0        1.576509    2.448704   -0.009517
     15          1           0        3.663417    1.163407    0.134669
     16          1           0        3.617545   -1.308190    0.068356
     17          1           0        1.480318   -2.507722   -0.067738
     18          1           0       -2.750430   -1.539879   -0.828213
 ---------------------------------------------------------------------
 Rotational constants (GHZ):           1.1761897           1.0327638           0.6052922
 Leave Link  202 at Tue Nov 25 03:43:23 2025, MaxMem=   536870912 cpu:               0.0 elap:               0.4
 (Enter /apps/t4/rhel9/isv/gaussian/G16C02/g16/l301.exe)
 Standard basis: 6-311+G(d,p) (5D, 7F)
 Ernie: Thresh=  0.10000D-02 Tol=  0.10000D-05 Strict=F.
 There are   312 symmetry adapted cartesian basis functions of A   symmetry.
 There are   300 symmetry adapted basis functions of A   symmetry.
   300 basis functions,   480 primitive gaussians,   312 cartesian basis functions
    43 alpha electrons       43 beta electrons
       nuclear repulsion energy       677.0603713058 Hartrees.
 IExCor=20419 DFT=T Ex+Corr=CAM-B3LYP ExCW=0 ScaHFX=  1.000000
 ScaDFX=  1.000000  1.000000  1.000000  0.810000 ScalE2=  1.000000  1.000000
 IRadAn=      5 IRanWt=     -1 IRanGd=            0 ICorTp=0 IEmpDi=  4
 HFx  wShort=  0.000000 wLong=  0.330000 cFull=  0.190000 cShort=  0.000000 cLong=  0.460000
 DFx  wShort=  0.000000 wLong=  0.330000 cFull=  0.190000 cShort=  0.000000 cLong=  0.460000
 NAtoms=   18 NActive=   18 NUniq=   18 SFac= 1.00D+00 NAtFMM=   60 NAOKFM=F Big=F
 Integral buffers will be    131072 words long.
 Raffenetti 2 integral format.
 Two-electron integral symmetry is turned on.
 ------------------------------------------------------------------------------
 Polarizable Continuum Model (PCM)
 =================================
 Model                : PCM.
 Atomic radii         : SMD-Coulomb.
 Polarization charges : Total charges.
 Charge compensation  : None.
 Solution method      : On-the-fly selection.
 Cavity type          : VdW (van der Waals Surface) (Alpha=1.000).
 Cavity algorithm     : GePol (No added spheres)
                        Default sphere list used, NSphG=   18.
                        Lebedev-Laikov grids with approx.  5.0 points / Ang**2.
                        Smoothing algorithm: York/Karplus (Gamma=1.0000).
                        Polarization charges: spherical gaussians, with
                                              point-specific exponents (IZeta= 3).
                        Self-potential: point-specific (ISelfS= 7).
                        Self-field    : sphere-specific E.n sum rule (ISelfD= 2).
 1st derivatives      : Analytical E(r).r(x)/FMM algorithm (CHGder, D1EAlg=3).
                        Cavity 1st derivative terms included.
 Solvent              : Water, Eps=  78.355300 Eps(inf)=   1.777849
 ------------------------------------------------------------------------------
 Spheres list:
 ISph  on   Nord     Re0    Alpha      Xe            Ye            Ze
    1   O      1    1.5200  1.000     -1.114651      2.563440     -0.531200
    2   C      2    1.8500  1.000     -0.907137      1.536064      0.075669
    3   O      3    1.5200  1.000     -1.712693      1.085696      1.038580
    4   C      4    1.8500  1.000      0.297650      0.684256     -0.122866
    5   C      5    1.8500  1.000      1.526839      1.366482     -0.010422
    6   C      6    1.8500  1.000      2.717430      0.642582      0.060427
    7   C      7    1.8500  1.000      2.691855     -0.749350      0.018750
    8   C      8    1.8500  1.000      1.474028     -1.424454     -0.070138
    9   C      9    1.8500  1.000      0.259697     -0.715672     -0.119785
   10   C     10    1.8500  1.000     -1.005506     -1.500016     -0.096302
   11   O     11    1.5200  1.000     -1.156683     -2.517912      0.542359
   12   O     12    1.5200  1.000     -1.944467     -1.001580     -0.901833
   13   H     13    1.2000  1.000     -2.488539      1.667176      1.107196
   14   H     14    1.2000  1.000      1.576509      2.448704     -0.009517
   15   H     15    1.2000  1.000      3.663417      1.163407      0.134669
   16   H     16    1.2000  1.000      3.617545     -1.308190      0.068356
   17   H     17    1.2000  1.000      1.480318     -2.507722     -0.067738
   18   H     18    1.2000  1.000     -2.750430     -1.539879     -0.828213
 ------------------------------------------------------------------------------
 GePol: Number of generator spheres                  =      18
 GePol: Total number of spheres                      =      18
 GePol: Number of exposed spheres                    =      18 (100.00%)
 GePol: Number of points                             =    1441
 GePol: Average weight of points                     =       0.12
 GePol: Minimum weight of points                     =   0.45D-08
 GePol: Maximum weight of points                     =    0.21991
 GePol: Number of points with low weight             =      75
 GePol: Fraction of low-weight points (<1% of avg)   =       5.20%
 GePol: Cavity surface area                          =    172.831 Ang**2
 GePol: Cavity volume                                =    147.633 Ang**3
 ------------------------------------------------------------------------------
 Atomic radii for non-electrostatic terms: SMD-CDS.
 ------------------------------------------------------------------------------
 PCM non-electrostatic energy =         0.0104159762 Hartrees.
 Nuclear repulsion after PCM non-electrostatic terms =      677.0707872820 Hartrees.
 Leave Link  301 at Tue Nov 25 03:43:23 2025, MaxMem=   536870912 cpu:               0.1 elap:               0.2
 (Enter /apps/t4/rhel9/isv/gaussian/G16C02/g16/l302.exe)
 NPDir=0 NMtPBC=     1 NCelOv=     1 NCel=       1 NClECP=     1 NCelD=      1
         NCelK=      1 NCelE2=     1 NClLst=     1 CellRange=     0.0.
 One-electron integrals computed using PRISM.
 One-electron integral symmetry used in STVInt
 NBasis=   300 RedAO= T EigKep=  1.12D-06  NBF=   300
 NBsUse=   300 1.00D-06 EigRej= -1.00D+00 NBFU=   300
 Precomputing XC quadrature grid using
 IXCGrd= 4 IRadAn=           5 IRanWt=          -1 IRanGd=           0 AccXCQ= 0.00D+00.
 Generated NRdTot=       0 NPtTot=           0 NUsed=           0 NTot=          32
 NSgBfM=   312   312   312   312   312 MxSgAt=    18 MxSgA2=    18.
 Leave Link  302 at Tue Nov 25 03:43:25 2025, MaxMem=   536870912 cpu:               0.4 elap:               0.4
 (Enter /apps/t4/rhel9/isv/gaussian/G16C02/g16/l303.exe)
 DipDrv:  MaxL=1.
 Leave Link  303 at Tue Nov 25 03:43:26 2025, MaxMem=   536870912 cpu:               0.1 elap:               0.3
 (Enter /apps/t4/rhel9/isv/gaussian/G16C02/g16/l401.exe)
 ExpMin= 4.38D-02 ExpMax= 8.59D+03 ExpMxC= 1.30D+03 IAcc=3 IRadAn=         5 AccDes= 0.00D+00
 Harris functional with IExCor=20419 and IRadAn=       5 diagonalized for initial guess.
 HarFok:  IExCor=20419 AccDes= 0.00D+00 IRadAn=         5 IDoV= 1 UseB2=F ITyADJ=14
 ICtDFT=  3500011 ScaDFX=  1.000000  1.000000  1.000000  1.000000
 FoFCou: FMM=F IPFlag=           0 FMFlag=      100000 FMFlg1=           0
         NFxFlg=           0 DoJE=T BraDBF=F KetDBF=T FulRan=T
         wScrn=  0.000000 ICntrl=       500 IOpCl=  0 I1Cent=   200000004 NGrid=           0
         NMat0=    1 NMatS0=      1 NMatT0=    0 NMatD0=    1 NMtDS0=    0 NMtDT0=    0
 Petite list used in FoFCou.
 Harris En= -587.697235452127    
 JPrj=0 DoOrth=F DoCkMO=F.
 Leave Link  401 at Tue Nov 25 03:43:28 2025, MaxMem=   536870912 cpu:               3.4 elap:               1.2
 (Enter /apps/t4/rhel9/isv/gaussian/G16C02/g16/l502.exe)
 Integral symmetry usage will be decided dynamically.
 Closed shell SCF:
 Using DIIS extrapolation, IDIIS=  1040.
 NGot=   536870912 LenX=   536670982 LenY=   536573197
 Requested convergence on RMS density matrix=1.00D-08 within 128 cycles.
 Requested convergence on MAX density matrix=1.00D-06.
 Requested convergence on             energy=1.00D-06.
 No special actions if energy rises.
 Fock matrices will be formed incrementally for  20 cycles.

 Cycle   1  Pass 1  IDiag  1:
 FoFJK:  IHMeth= 1 ICntrl=       0 DoSepK=T KAlg= 0 I1Cent=           0 FoldK=F
 IRaf=         1 NMat=       1 IRICut=       1 DoRegI=T DoRafI=F ISym2E= 0 IDoP0=0 IntGTp=1.
 FoFCou: FMM=F IPFlag=           0 FMFlag=      100000 FMFlg1=           0
         NFxFlg=           0 DoJE=T BraDBF=F KetDBF=F FulRan=T
         wScrn=  0.000000 ICntrl=       500 IOpCl=  0 I1Cent=           0 NGrid=           0
         NMat0=    1 NMatS0=      1 NMatT0=    0 NMatD0=    1 NMtDS0=    0 NMtDT0=    0
 Symmetry not used in FoFCou.
 Inv3:  Mode=1 IEnd=     6229443.
 Iteration    1 A*A^-1 deviation from unit magnitude is 3.11D-15 for    564.
 Iteration    1 A*A^-1 deviation from orthogonality  is 2.00D-15 for   1380    585.
 Iteration    1 A^-1*A deviation from unit magnitude is 3.22D-15 for     46.
 Iteration    1 A^-1*A deviation from orthogonality  is 1.24D-12 for   1427   1401.
 E= -609.182433010990    
 DIIS: error= 6.59D-02 at cycle   1 NSaved=   1.
 NSaved= 1 IEnMin= 1 EnMin= -609.182433010990     IErMin= 1 ErrMin= 6.59D-02
 ErrMax= 6.59D-02  0.00D+00 EMaxC= 1.00D-01 BMatC= 9.60D-01 BMatP= 9.60D-01
 IDIUse=3 WtCom= 3.41D-01 WtEn= 6.59D-01
 Coeff-Com:  0.100D+01
 Coeff-En:   0.100D+01
 Coeff:      0.100D+01
 Gap=     0.376 Goal=   None    Shift=    0.000
 GapD=    0.376 DampG=1.000 DampE=0.500 DampFc=0.5000 IDamp=-1.
 Damping current iteration by 5.00D-01
 RMSDP=1.70D-02 MaxDP=1.17D+00              OVMax= 1.15D-01

 Cycle   2  Pass 1  IDiag  1:
 RMSU=  7.37D-03    CP:  9.35D-01
 E= -609.253168129739     Delta-E=       -0.070735118749 Rises=F Damp=T
 DIIS: error= 3.05D-02 at cycle   2 NSaved=   2.
 NSaved= 2 IEnMin= 2 EnMin= -609.253168129739     IErMin= 2 ErrMin= 3.05D-02
 ErrMax= 3.05D-02  0.00D+00 EMaxC= 1.00D-01 BMatC= 1.95D-01 BMatP= 9.60D-01
 IDIUse=3 WtCom= 6.95D-01 WtEn= 3.05D-01
 Coeff-Com: -0.643D+00 0.164D+01
 Coeff-En:   0.000D+00 0.100D+01
 Coeff:     -0.447D+00 0.145D+01
 Gap=     0.337 Goal=   None    Shift=    0.000
 RMSDP=1.26D-02 MaxDP=9.85D-01 DE=-7.07D-02 OVMax= 7.55D-02

 Cycle   3  Pass 1  IDiag  1:
 RMSU=  5.02D-03    CP:  7.60D-01  1.36D+00
 E= -609.303492726797     Delta-E=       -0.050324597058 Rises=F Damp=F
 DIIS: error= 8.08D-03 at cycle   3 NSaved=   3.
 NSaved= 3 IEnMin= 3 EnMin= -609.303492726797     IErMin= 3 ErrMin= 8.08D-03
 ErrMax= 8.08D-03  0.00D+00 EMaxC= 1.00D-01 BMatC= 2.93D-02 BMatP= 1.95D-01
 IDIUse=3 WtCom= 9.19D-01 WtEn= 8.08D-02
 Coeff-Com: -0.328D+00 0.718D+00 0.610D+00
 Coeff-En:   0.000D+00 0.000D+00 0.100D+01
 Coeff:     -0.301D+00 0.660D+00 0.642D+00
 Gap=     0.307 Goal=   None    Shift=    0.000
 RMSDP=2.19D-03 MaxDP=1.10D-01 DE=-5.03D-02 OVMax= 3.70D-02

 Cycle   4  Pass 1  IDiag  1:
 RMSU=  1.16D-03    CP:  7.64D-01  1.58D+00  8.38D-01
 E= -609.323015902057     Delta-E=       -0.019523175259 Rises=F Damp=F
 DIIS: error= 2.35D-03 at cycle   4 NSaved=   4.
 NSaved= 4 IEnMin= 4 EnMin= -609.323015902057     IErMin= 4 ErrMin= 2.35D-03
 ErrMax= 2.35D-03  0.00D+00 EMaxC= 1.00D-01 BMatC= 3.23D-03 BMatP= 2.93D-02
 IDIUse=3 WtCom= 9.77D-01 WtEn= 2.35D-02
 Coeff-Com: -0.158D+00 0.338D+00 0.370D+00 0.449D+00
 Coeff-En:   0.000D+00 0.000D+00 0.000D+00 0.100D+01
 Coeff:     -0.154D+00 0.330D+00 0.361D+00 0.462D+00
 Gap=     0.300 Goal=   None    Shift=    0.000
 RMSDP=5.35D-04 MaxDP=3.23D-02 DE=-1.95D-02 OVMax= 1.11D-02

 Cycle   5  Pass 1  IDiag  1:
 RMSU=  3.80D-04    CP:  7.61D-01  1.59D+00  8.81D-01  8.74D-01
 E= -609.325118975911     Delta-E=       -0.002103073854 Rises=F Damp=F
 DIIS: error= 3.91D-04 at cycle   5 NSaved=   5.
 NSaved= 5 IEnMin= 5 EnMin= -609.325118975911     IErMin= 5 ErrMin= 3.91D-04
 ErrMax= 3.91D-04  0.00D+00 EMaxC= 1.00D-01 BMatC= 5.22D-05 BMatP= 3.23D-03
 IDIUse=3 WtCom= 9.96D-01 WtEn= 3.91D-03
 Coeff-Com: -0.349D-01 0.741D-01 0.941D-01 0.175D+00 0.692D+00
 Coeff-En:   0.000D+00 0.000D+00 0.000D+00 0.000D+00 0.100D+01
 Coeff:     -0.348D-01 0.738D-01 0.937D-01 0.174D+00 0.693D+00
 Gap=     0.301 Goal=   None    Shift=    0.000
 RMSDP=2.65D-04 MaxDP=1.99D-02 DE=-2.10D-03 OVMax= 1.74D-03

 Cycle   6  Pass 1  IDiag  1:
 RMSU=  6.52D-05    CP:  7.57D-01  1.59D+00  9.04D-01  9.26D-01  1.08D+00
 E= -609.325155285472     Delta-E=       -0.000036309561 Rises=F Damp=F
 DIIS: error= 1.33D-04 at cycle   6 NSaved=   6.
 NSaved= 6 IEnMin= 6 EnMin= -609.325155285472     IErMin= 6 ErrMin= 1.33D-04
 ErrMax= 1.33D-04  0.00D+00 EMaxC= 1.00D-01 BMatC= 7.51D-06 BMatP= 5.22D-05
 IDIUse=3 WtCom= 9.99D-01 WtEn= 1.33D-03
 Coeff-Com:  0.699D-02-0.154D-01-0.106D-01 0.103D-01 0.310D+00 0.699D+00
 Coeff-En:   0.000D+00 0.000D+00 0.000D+00 0.000D+00 0.000D+00 0.100D+01
 Coeff:      0.698D-02-0.154D-01-0.106D-01 0.103D-01 0.310D+00 0.699D+00
 Gap=     0.301 Goal=   None    Shift=    0.000
 RMSDP=2.01D-04 MaxDP=2.01D-02 DE=-3.63D-05 OVMax= 6.68D-04

 Cycle   7  Pass 1  IDiag  1:
 RMSU=  3.71D-05    CP:  7.54D-01  1.59D+00  9.17D-01  9.56D-01  1.13D+00
                    CP:  8.57D-01
 E= -609.325161991979     Delta-E=       -0.000006706506 Rises=F Damp=F
 DIIS: error= 2.69D-05 at cycle   7 NSaved=   7.
 NSaved= 7 IEnMin= 7 EnMin= -609.325161991979     IErMin= 7 ErrMin= 2.69D-05
 ErrMax= 2.69D-05  0.00D+00 EMaxC= 1.00D-01 BMatC= 4.10D-07 BMatP= 7.51D-06
 IDIUse=1 WtCom= 1.00D+00 WtEn= 0.00D+00
 Coeff-Com:  0.593D-02-0.127D-01-0.130D-01-0.150D-01 0.382D-01 0.216D+00
 Coeff-Com:  0.780D+00
 Coeff:      0.593D-02-0.127D-01-0.130D-01-0.150D-01 0.382D-01 0.216D+00
 Coeff:      0.780D+00
 Gap=     0.301 Goal=   None    Shift=    0.000
 RMSDP=4.39D-05 MaxDP=3.26D-03 DE=-6.71D-06 OVMax= 2.25D-04

 Cycle   8  Pass 1  IDiag  1:
 RMSU=  8.59D-06    CP:  7.54D-01  1.59D+00  9.19D-01  9.63D-01  1.16D+00
                    CP:  8.79D-01  1.20D+00
 E= -609.325162455375     Delta-E=       -0.000000463397 Rises=F Damp=F
 DIIS: error= 8.30D-06 at cycle   8 NSaved=   8.
 NSaved= 8 IEnMin= 8 EnMin= -609.325162455375     IErMin= 8 ErrMin= 8.30D-06
 ErrMax= 8.30D-06  0.00D+00 EMaxC= 1.00D-01 BMatC= 5.10D-08 BMatP= 4.10D-07
 IDIUse=1 WtCom= 1.00D+00 WtEn= 0.00D+00
 Coeff-Com:  0.614D-03-0.128D-02-0.189D-02-0.536D-02-0.200D-01-0.120D-01
 Coeff-Com:  0.269D+00 0.771D+00
 Coeff:      0.614D-03-0.128D-02-0.189D-02-0.536D-02-0.200D-01-0.120D-01
 Coeff:      0.269D+00 0.771D+00
 Gap=     0.301 Goal=   None    Shift=    0.000
 RMSDP=1.06D-05 MaxDP=9.34D-04 DE=-4.63D-07 OVMax= 8.99D-05

 Cycle   9  Pass 1  IDiag  1:
 RMSU=  2.96D-06    CP:  7.54D-01  1.59D+00  9.20D-01  9.63D-01  1.16D+00
                    CP:  8.74D-01  1.32D+00  1.08D+00
 E= -609.325162516087     Delta-E=       -0.000000060711 Rises=F Damp=F
 DIIS: error= 3.66D-06 at cycle   9 NSaved=   9.
 NSaved= 9 IEnMin= 9 EnMin= -609.325162516087     IErMin= 9 ErrMin= 3.66D-06
 ErrMax= 3.66D-06  0.00D+00 EMaxC= 1.00D-01 BMatC= 6.63D-09 BMatP= 5.10D-08
 IDIUse=1 WtCom= 1.00D+00 WtEn= 0.00D+00
 Coeff-Com: -0.362D-03 0.788D-03 0.598D-03-0.764D-03-0.103D-01-0.266D-01
 Coeff-Com:  0.266D-01 0.300D+00 0.710D+00
 Coeff:     -0.362D-03 0.788D-03 0.598D-03-0.764D-03-0.103D-01-0.266D-01
 Coeff:      0.266D-01 0.300D+00 0.710D+00
 Gap=     0.301 Goal=   None    Shift=    0.000
 RMSDP=2.05D-06 MaxDP=1.24D-04 DE=-6.07D-08 OVMax= 4.48D-05

 Cycle  10  Pass 1  IDiag  1:
 RMSU=  1.17D-06    CP:  7.54D-01  1.59D+00  9.20D-01  9.63D-01  1.16D+00
                    CP:  8.81D-01  1.34D+00  1.09D+00  1.14D+00
 E= -609.325162524271     Delta-E=       -0.000000008184 Rises=F Damp=F
 DIIS: error= 1.52D-06 at cycle  10 NSaved=  10.
 NSaved=10 IEnMin=10 EnMin= -609.325162524271     IErMin=10 ErrMin= 1.52D-06
 ErrMax= 1.52D-06  0.00D+00 EMaxC= 1.00D-01 BMatC= 8.64D-10 BMatP= 6.63D-09
 IDIUse=1 WtCom= 1.00D+00 WtEn= 0.00D+00
 Coeff-Com: -0.167D-03 0.357D-03 0.379D-03 0.297D-03 0.295D-04-0.747D-02
 Coeff-Com: -0.332D-01-0.203D-01 0.237D+00 0.823D+00
 Coeff:     -0.167D-03 0.357D-03 0.379D-03 0.297D-03 0.295D-04-0.747D-02
 Coeff:     -0.332D-01-0.203D-01 0.237D+00 0.823D+00
 Gap=     0.301 Goal=   None    Shift=    0.000
 RMSDP=1.34D-06 MaxDP=7.38D-05 DE=-8.18D-09 OVMax= 1.66D-05

 Cycle  11  Pass 1  IDiag  1:
 RMSU=  4.44D-07    CP:  7.54D-01  1.59D+00  9.20D-01  9.62D-01  1.16D+00
                    CP:  8.74D-01  1.35D+00  1.13D+00  1.27D+00  9.53D-01
 E= -609.325162525669     Delta-E=       -0.000000001399 Rises=F Damp=F
 DIIS: error= 2.74D-07 at cycle  11 NSaved=  11.
 NSaved=11 IEnMin=11 EnMin= -609.325162525669     IErMin=11 ErrMin= 2.74D-07
 ErrMax= 2.74D-07  0.00D+00 EMaxC= 1.00D-01 BMatC= 4.84D-11 BMatP= 8.64D-10
 IDIUse=1 WtCom= 1.00D+00 WtEn= 0.00D+00
 Coeff-Com: -0.121D-04 0.244D-04 0.500D-04 0.132D-03 0.999D-03 0.215D-03
 Coeff-Com: -0.988D-02-0.254D-01-0.107D-01 0.171D+00 0.873D+00
 Coeff:     -0.121D-04 0.244D-04 0.500D-04 0.132D-03 0.999D-03 0.215D-03
 Coeff:     -0.988D-02-0.254D-01-0.107D-01 0.171D+00 0.873D+00
 Gap=     0.301 Goal=   None    Shift=    0.000
 RMSDP=2.54D-07 MaxDP=2.05D-05 DE=-1.40D-09 OVMax= 4.64D-06

 Cycle  12  Pass 1  IDiag  1:
 RMSU=  1.27D-07    CP:  7.54D-01  1.59D+00  9.20D-01  9.62D-01  1.16D+00
                    CP:  8.73D-01  1.36D+00  1.13D+00  1.29D+00  1.00D+00
                    CP:  1.13D+00
 E= -609.325162525759     Delta-E=       -0.000000000090 Rises=F Damp=F
 DIIS: error= 2.12D-07 at cycle  12 NSaved=  12.
 NSaved=12 IEnMin=12 EnMin= -609.325162525759     IErMin=12 ErrMin= 2.12D-07
 ErrMax= 2.12D-07  0.00D+00 EMaxC= 1.00D-01 BMatC= 1.98D-11 BMatP= 4.84D-11
 IDIUse=1 WtCom= 1.00D+00 WtEn= 0.00D+00
 Coeff-Com:  0.107D-04-0.236D-04-0.121D-04 0.418D-04 0.560D-03 0.853D-03
 Coeff-Com: -0.165D-02-0.110D-01-0.348D-01 0.166D-02 0.468D+00 0.576D+00
 Coeff:      0.107D-04-0.236D-04-0.121D-04 0.418D-04 0.560D-03 0.853D-03
 Coeff:     -0.165D-02-0.110D-01-0.348D-01 0.166D-02 0.468D+00 0.576D+00
 Gap=     0.301 Goal=   None    Shift=    0.000
 RMSDP=1.00D-07 MaxDP=7.69D-06 DE=-8.96D-11 OVMax= 1.95D-06

 Cycle  13  Pass 1  IDiag  1:
 RMSU=  5.00D-08    CP:  7.54D-01  1.59D+00  9.20D-01  9.62D-01  1.16D+00
                    CP:  8.73D-01  1.36D+00  1.13D+00  1.30D+00  1.00D+00
                    CP:  1.14D+00  1.09D+00
 E= -609.325162525789     Delta-E=       -0.000000000030 Rises=F Damp=F
 DIIS: error= 8.61D-08 at cycle  13 NSaved=  13.
 NSaved=13 IEnMin=13 EnMin= -609.325162525789     IErMin=13 ErrMin= 8.61D-08
 ErrMax= 8.61D-08  0.00D+00 EMaxC= 1.00D-01 BMatC= 1.63D-12 BMatP= 1.98D-11
 IDIUse=1 WtCom= 1.00D+00 WtEn= 0.00D+00
 Coeff-Com:  0.537D-05-0.114D-04-0.134D-04-0.122D-04-0.498D-05 0.160D-03
 Coeff-Com:  0.145D-02 0.174D-02-0.107D-01-0.276D-01-0.233D-01 0.167D+00
 Coeff-Com:  0.891D+00
 Coeff:      0.537D-05-0.114D-04-0.134D-04-0.122D-04-0.498D-05 0.160D-03
 Coeff:      0.145D-02 0.174D-02-0.107D-01-0.276D-01-0.233D-01 0.167D+00
 Coeff:      0.891D+00
 Gap=     0.301 Goal=   None    Shift=    0.000
 RMSDP=4.59D-08 MaxDP=3.10D-06 DE=-3.00D-11 OVMax= 1.61D-06

 Cycle  14  Pass 1  IDiag  1:
 RMSU=  2.18D-08    CP:  7.54D-01  1.59D+00  9.20D-01  9.62D-01  1.16D+00
                    CP:  8.73D-01  1.36D+00  1.13D+00  1.30D+00  9.92D-01
                    CP:  1.17D+00  1.21D+00  1.46D+00
 E= -609.325162525780     Delta-E=        0.000000000009 Rises=F Damp=F
 DIIS: error= 3.78D-08 at cycle  14 NSaved=  14.
 NSaved=14 IEnMin=13 EnMin= -609.325162525789     IErMin=14 ErrMin= 3.78D-08
 ErrMax= 3.78D-08  0.00D+00 EMaxC= 1.00D-01 BMatC= 4.60D-13 BMatP= 1.63D-12
 IDIUse=1 WtCom= 1.00D+00 WtEn= 0.00D+00
 Coeff-Com:  0.895D-06-0.173D-05-0.483D-05-0.131D-04-0.936D-04-0.654D-04
 Coeff-Com:  0.101D-02 0.281D-02 0.218D-04-0.125D-01-0.895D-01-0.192D-01
 Coeff-Com:  0.438D+00 0.680D+00
 Coeff:      0.895D-06-0.173D-05-0.483D-05-0.131D-04-0.936D-04-0.654D-04
 Coeff:      0.101D-02 0.281D-02 0.218D-04-0.125D-01-0.895D-01-0.192D-01
 Coeff:      0.438D+00 0.680D+00
 Gap=     0.301 Goal=   None    Shift=    0.000
 RMSDP=1.78D-08 MaxDP=1.11D-06 DE= 8.98D-12 OVMax= 5.41D-07

 Cycle  15  Pass 1  IDiag  1:
 RMSU=  6.65D-09    CP:  7.54D-01  1.59D+00  9.20D-01  9.62D-01  1.16D+00
                    CP:  8.73D-01  1.36D+00  1.13D+00  1.30D+00  9.88D-01
                    CP:  1.18D+00  1.25D+00  1.65D+00  1.21D+00
 E= -609.325162525801     Delta-E=       -0.000000000021 Rises=F Damp=F
 DIIS: error= 1.69D-08 at cycle  15 NSaved=  15.
 NSaved=15 IEnMin=15 EnMin= -609.325162525801     IErMin=15 ErrMin= 1.69D-08
 ErrMax= 1.69D-08  0.00D+00 EMaxC= 1.00D-01 BMatC= 2.66D-14 BMatP= 4.60D-13
 IDIUse=1 WtCom= 1.00D+00 WtEn= 0.00D+00
 Coeff-Com: -0.947D-06 0.200D-05 0.204D-05 0.158D-05-0.793D-05-0.280D-04
 Coeff-Com: -0.172D-03 0.292D-05 0.132D-02 0.356D-02-0.314D-02-0.300D-01
 Coeff-Com: -0.102D+00 0.783D-01 0.105D+01
 Coeff:     -0.947D-06 0.200D-05 0.204D-05 0.158D-05-0.793D-05-0.280D-04
 Coeff:     -0.172D-03 0.292D-05 0.132D-02 0.356D-02-0.314D-02-0.300D-01
 Coeff:     -0.102D+00 0.783D-01 0.105D+01
 Gap=     0.301 Goal=   None    Shift=    0.000
 RMSDP=1.05D-08 MaxDP=7.72D-07 DE=-2.10D-11 OVMax= 3.26D-07

 Cycle  16  Pass 1  IDiag  1:
 RMSU=  2.45D-09    CP:  7.54D-01  1.59D+00  9.20D-01  9.62D-01  1.16D+00
                    CP:  8.73D-01  1.36D+00  1.13D+00  1.30D+00  9.85D-01
                    CP:  1.17D+00  1.26D+00  1.75D+00  1.40D+00  1.32D+00
 E= -609.325162525778     Delta-E=        0.000000000023 Rises=F Damp=F
 DIIS: error= 3.95D-09 at cycle  16 NSaved=  16.
 NSaved=16 IEnMin=15 EnMin= -609.325162525801     IErMin=16 ErrMin= 3.95D-09
 ErrMax= 3.95D-09  0.00D+00 EMaxC= 1.00D-01 BMatC= 1.80D-15 BMatP= 2.66D-14
 IDIUse=1 WtCom= 1.00D+00 WtEn= 0.00D+00
 Large coefficients: NSaved= 16 BigCof=    0.00 CofMax=   10.00 Det=-6.62D-15
 Inversion failed.  Reducing to 15 matrices.
 Coeff-Com: -0.154D-07 0.228D-06 0.115D-05 0.771D-05 0.101D-04-0.912D-04
 Coeff-Com: -0.242D-03-0.248D-04 0.887D-03 0.910D-02 0.209D-02-0.435D-01
 Coeff-Com: -0.626D-01-0.283D-01 0.112D+01
 Coeff:     -0.154D-07 0.228D-06 0.115D-05 0.771D-05 0.101D-04-0.912D-04
 Coeff:     -0.242D-03-0.248D-04 0.887D-03 0.910D-02 0.209D-02-0.435D-01
 Coeff:     -0.626D-01-0.283D-01 0.112D+01
 Gap=     0.301 Goal=   None    Shift=    0.000
 RMSDP=4.65D-09 MaxDP=3.60D-07 DE= 2.31D-11 OVMax= 9.11D-08

 Error on total polarization charges =  0.05419
 SCF Done:  E(RCAM-B3LYP) =  -609.325162526     A.U. after   16 cycles
            NFock= 16  Conv=0.47D-08     -V/T= 2.0033
 KE= 6.073231185186D+02 PE=-2.781521440321D+03 EE= 8.878023719949D+02
 SMD-CDS (non-electrostatic) energy       (kcal/mol) =       6.54
 (included in total energy above)
 Leave Link  502 at Tue Nov 25 03:44:20 2025, MaxMem=   536870912 cpu:             193.7 elap:              50.6
 (Enter /apps/t4/rhel9/isv/gaussian/G16C02/g16/l601.exe)
 Copying SCF densities to generalized density rwf, IOpCl= 0 IROHF=0.

 **********************************************************************

            Population analysis using the SCF Density.

 **********************************************************************

 Orbital symmetries:
       Occupied  (A) (A) (A) (A) (A) (A) (A) (A) (A) (A) (A) (A)
                 (A) (A) (A) (A) (A) (A) (A) (A) (A) (A) (A) (A)
                 (A) (A) (A) (A) (A) (A) (A) (A) (A) (A) (A) (A)
                 (A) (A) (A) (A) (A) (A) (A)
       Virtual   (A) (A) (A) (A) (A) (A) (A) (A) (A) (A) (A) (A)
                 (A) (A) (A) (A) (A) (A) (A) (A) (A) (A) (A) (A)
                 (A) (A) (A) (A) (A) (A) (A) (A) (A) (A) (A) (A)
                 (A) (A) (A) (A) (A) (A) (A) (A) (A) (A) (A) (A)
                 (A) (A) (A) (A) (A) (A) (A) (A) (A) (A) (A) (A)
                 (A) (A) (A) (A) (A) (A) (A) (A) (A) (A) (A) (A)
                 (A) (A) (A) (A) (A) (A) (A) (A) (A) (A) (A) (A)
                 (A) (A) (A) (A) (A) (A) (A) (A) (A) (A) (A) (A)
                 (A) (A) (A) (A) (A) (A) (A) (A) (A) (A) (A) (A)
                 (A) (A) (A) (A) (A) (A) (A) (A) (A) (A) (A) (A)
                 (A) (A) (A) (A) (A) (A) (A) (A) (A) (A) (A) (A)
                 (A) (A) (A) (A) (A) (A) (A) (A) (A) (A) (A) (A)
                 (A) (A) (A) (A) (A) (A) (A) (A) (A) (A) (A) (A)
                 (A) (A) (A) (A) (A) (A) (A) (A) (A) (A) (A) (A)
                 (A) (A) (A) (A) (A) (A) (A) (A) (A) (A) (A) (A)
                 (A) (A) (A) (A) (A) (A) (A) (A) (A) (A) (A) (A)
                 (A) (A) (A) (A) (A) (A) (A) (A) (A) (A) (A) (A)
                 (A) (A) (A) (A) (A) (A) (A) (A) (A) (A) (A) (A)
                 (A) (A) (A) (A) (A) (A) (A) (A) (A) (A) (A) (A)
                 (A) (A) (A) (A) (A) (A) (A) (A) (A) (A) (A) (A)
                 (A) (A) (A) (A) (A) (A) (A) (A) (A) (A) (A) (A)
                 (A) (A) (A) (A) (A)
 The electronic state is 1-A.
 Alpha  occ. eigenvalues --  -19.25552 -19.25514 -19.20642 -19.20555 -10.40674
 Alpha  occ. eigenvalues --  -10.40623 -10.28997 -10.28914 -10.27079 -10.27016
 Alpha  occ. eigenvalues --  -10.26424 -10.26357  -1.21597  -1.21017  -1.12114
 Alpha  occ. eigenvalues --   -1.11983  -0.96982  -0.87476  -0.86074  -0.76953
 Alpha  occ. eigenvalues --   -0.74698  -0.68491  -0.68316  -0.63149  -0.58920
 Alpha  occ. eigenvalues --   -0.58768  -0.57878  -0.56358  -0.55119  -0.53572
 Alpha  occ. eigenvalues --   -0.51800  -0.51603  -0.49255  -0.48513  -0.45647
 Alpha  occ. eigenvalues --   -0.43826  -0.43354  -0.41513  -0.40396  -0.37966
 Alpha  occ. eigenvalues --   -0.37259  -0.33197  -0.32726
 Alpha virt. eigenvalues --   -0.02623   0.00173   0.03239   0.04722   0.04807
 Alpha virt. eigenvalues --    0.05362   0.06402   0.07022   0.07096   0.07481
 Alpha virt. eigenvalues --    0.08353   0.09312   0.09514   0.10136   0.10443
 Alpha virt. eigenvalues --    0.12689   0.13261   0.13592   0.14147   0.15112
 Alpha virt. eigenvalues --    0.15878   0.16053   0.16768   0.18070   0.19798
 Alpha virt. eigenvalues --    0.19971   0.20200   0.21247   0.21749   0.21890
 Alpha virt. eigenvalues --    0.22391   0.23186   0.23279   0.23450   0.24098
 Alpha virt. eigenvalues --    0.24971   0.25274   0.25420   0.25548   0.26681
 Alpha virt. eigenvalues --    0.27966   0.28560   0.28764   0.29195   0.29652
 Alpha virt. eigenvalues --    0.30780   0.31231   0.31666   0.32019   0.32699
 Alpha virt. eigenvalues --    0.33065   0.34605   0.34863   0.35301   0.35465
 Alpha virt. eigenvalues --    0.36365   0.37352   0.37954   0.38784   0.39106
 Alpha virt. eigenvalues --    0.40100   0.40956   0.43138   0.43939   0.46442
 Alpha virt. eigenvalues --    0.47397   0.49193   0.52039   0.52737   0.52803
 Alpha virt. eigenvalues --    0.56972   0.58578   0.59106   0.59674   0.60332
 Alpha virt. eigenvalues --    0.61433   0.63199   0.63720   0.65235   0.65670
 Alpha virt. eigenvalues --    0.66839   0.67728   0.68773   0.69445   0.69998
 Alpha virt. eigenvalues --    0.71625   0.73117   0.75083   0.75794   0.76292
 Alpha virt. eigenvalues --    0.77697   0.78533   0.80530   0.81306   0.82740
 Alpha virt. eigenvalues --    0.84050   0.86029   0.87763   0.89377   0.89584
 Alpha virt. eigenvalues --    0.90528   0.94556   0.95655   0.97173   0.98132
 Alpha virt. eigenvalues --    1.03846   1.05657   1.06977   1.08901   1.10591
 Alpha virt. eigenvalues --    1.12881   1.15379   1.16662   1.18070   1.19114
 Alpha virt. eigenvalues --    1.20298   1.21220   1.21904   1.23316   1.23883
 Alpha virt. eigenvalues --    1.24794   1.26995   1.27705   1.29848   1.35125
 Alpha virt. eigenvalues --    1.35197   1.36738   1.38565   1.43712   1.45535
 Alpha virt. eigenvalues --    1.50058   1.52748   1.55441   1.56690   1.57105
 Alpha virt. eigenvalues --    1.58202   1.60549   1.61061   1.62247   1.63039
 Alpha virt. eigenvalues --    1.64544   1.66027   1.69556   1.70352   1.73594
 Alpha virt. eigenvalues --    1.74329   1.77337   1.80646   1.81122   1.82884
 Alpha virt. eigenvalues --    1.83593   1.86596   1.87276   1.90068   1.92348
 Alpha virt. eigenvalues --    1.95080   1.97984   2.00614   2.01152   2.01882
 Alpha virt. eigenvalues --    2.03046   2.04962   2.05406   2.08920   2.10682
 Alpha virt. eigenvalues --    2.12054   2.12207   2.16915   2.21700   2.25518
 Alpha virt. eigenvalues --    2.30769   2.37580   2.41768   2.45380   2.46025
 Alpha virt. eigenvalues --    2.48062   2.57999   2.63810   2.65831   2.66140
 Alpha virt. eigenvalues --    2.68465   2.71960   2.74891   2.75032   2.76917
 Alpha virt. eigenvalues --    2.79471   2.82398   2.83018   2.84219   2.86793
 Alpha virt. eigenvalues --    2.87524   2.88973   2.89288   2.93652   2.94094
 Alpha virt. eigenvalues --    2.95616   2.98525   3.00840   3.02096   3.06076
 Alpha virt. eigenvalues --    3.10254   3.11231   3.15843   3.15939   3.20204
 Alpha virt. eigenvalues --    3.24820   3.26535   3.27445   3.30832   3.35473
 Alpha virt. eigenvalues --    3.37067   3.41875   3.42409   3.43744   3.45960
 Alpha virt. eigenvalues --    3.57613   3.60102   3.63058   3.64279   3.70533
 Alpha virt. eigenvalues --    3.71155   3.78509   3.87646   3.88411   3.92100
 Alpha virt. eigenvalues --    4.09953   4.11025   4.13127   4.14286   4.22836
 Alpha virt. eigenvalues --    4.29914   4.36965   4.89576   5.02303   5.11140
 Alpha virt. eigenvalues --    5.13510   5.16436   5.21641   5.23925   5.46078
 Alpha virt. eigenvalues --    5.49441   5.67016   5.68175   5.91536   5.92381
 Alpha virt. eigenvalues --   23.62038  23.85674  23.87877  23.96896  24.01982
 Alpha virt. eigenvalues --   24.10500  24.11905  24.22234  49.90399  49.91401
 Alpha virt. eigenvalues --   50.04272  50.06269
          Condensed to atoms (all electrons):
               1          2          3          4          5          6
     1  O    8.161633   0.495232  -0.119885  -0.049239  -0.243305   0.056196
     2  C    0.495232   6.999629   0.236566  -0.001422  -1.286940  -0.075175
     3  O   -0.119885   0.236566   7.950571  -0.138096  -0.115723   0.015557
     4  C   -0.049239  -0.001422  -0.138096  14.941194  -3.180182   0.571689
     5  C   -0.243305  -1.286940  -0.115723  -3.180182  11.529657  -1.081553
     6  C    0.056196  -0.075175   0.015557   0.571689  -1.081553   6.249527
     7  C   -0.009158  -0.064196  -0.012889  -0.954951   1.023498   0.087231
     8  C    0.020279   1.246415   0.057980   1.851460  -3.176254   0.961642
     9  C    0.102088  -0.458218   0.126777  -6.715033   1.350430  -0.881746
    10  C   -0.022063  -0.993427  -0.038355  -0.674363   0.828803  -0.048628
    11  O   -0.000180  -0.000269  -0.005045  -0.011900   0.015093  -0.005196
    12  O   -0.004185   0.004455  -0.018055  -0.048214   0.044699  -0.008629
    13  H   -0.006891  -0.010906   0.256786   0.001223   0.000868  -0.000917
    14  H    0.002133   0.012692  -0.000218  -0.078256   0.456860  -0.036818
    15  H   -0.000013  -0.000395   0.000033  -0.033400   0.009003   0.388963
    16  H   -0.000002   0.000259   0.000006   0.008615  -0.023314  -0.001747
    17  H    0.000035  -0.000784   0.000111  -0.010475   0.001196  -0.008066
    18  H    0.000024  -0.005036   0.001009   0.021177  -0.005187   0.000461
               7          8          9         10         11         12
     1  O   -0.009158   0.020279   0.102088  -0.022063  -0.000180  -0.004185
     2  C   -0.064196   1.246415  -0.458218  -0.993427  -0.000269   0.004455
     3  O   -0.012889   0.057980   0.126777  -0.038355  -0.005045  -0.018055
     4  C   -0.954951   1.851460  -6.715033  -0.674363  -0.011900  -0.048214
     5  C    1.023498  -3.176254   1.350430   0.828803   0.015093   0.044699
     6  C    0.087231   0.961642  -0.881746  -0.048628  -0.005196  -0.008629
     7  C    6.223968  -1.431535   0.735714   0.091255   0.049028   0.015333
     8  C   -1.431535  15.490046  -5.828275  -2.722350  -0.021479   0.070457
     9  C    0.735714  -5.828275  17.624181  -0.178235  -0.068882  -0.089173
    10  C    0.091255  -2.722350  -0.178235   8.823459   0.378327   0.142313
    11  O    0.049028  -0.021479  -0.068882   0.378327   8.186279  -0.105806
    12  O    0.015333   0.070457  -0.089173   0.142313  -0.105806   7.938630
    13  H    0.000370  -0.012461   0.014583   0.028272   0.000001   0.000298
    14  H   -0.002638  -0.013910   0.011824   0.006548   0.000025   0.000111
    15  H    0.007505  -0.046440   0.033579   0.003289  -0.000006   0.000010
    16  H    0.393728  -0.030323   0.006798   0.007389   0.000016   0.000051
    17  H   -0.019889   0.376309  -0.025699   0.043178  -0.000623  -0.000508
    18  H   -0.001077  -0.031596  -0.081657   0.124056  -0.011557   0.252932
              13         14         15         16         17         18
     1  O   -0.006891   0.002133  -0.000013  -0.000002   0.000035   0.000024
     2  C   -0.010906   0.012692  -0.000395   0.000259  -0.000784  -0.005036
     3  O    0.256786  -0.000218   0.000033   0.000006   0.000111   0.001009
     4  C    0.001223  -0.078256  -0.033400   0.008615  -0.010475   0.021177
     5  C    0.000868   0.456860   0.009003  -0.023314   0.001196  -0.005187
     6  C   -0.000917  -0.036818   0.388963  -0.001747  -0.008066   0.000461
     7  C    0.000370  -0.002638   0.007505   0.393728  -0.019889  -0.001077
     8  C   -0.012461  -0.013910  -0.046440  -0.030323   0.376309  -0.031596
     9  C    0.014583   0.011824   0.033579   0.006798  -0.025699  -0.081657
    10  C    0.028272   0.006548   0.003289   0.007389   0.043178   0.124056
    11  O    0.000001   0.000025  -0.000006   0.000016  -0.000623  -0.011557
    12  O    0.000298   0.000111   0.000010   0.000051  -0.000508   0.252932
    13  H    0.381560   0.000063  -0.000000   0.000000   0.000001   0.000621
    14  H    0.000063   0.447008  -0.005036  -0.000124   0.000026   0.000001
    15  H   -0.000000  -0.005036   0.458434  -0.005477  -0.000111   0.000000
    16  H    0.000000  -0.000124  -0.005477   0.459138  -0.005274   0.000001
    17  H    0.000001   0.000026  -0.000111  -0.005274   0.455583   0.000075
    18  H    0.000621   0.000001   0.000000   0.000001   0.000075   0.386319
 Mulliken charges:
               1
     1  O   -0.382698
     2  C   -0.098480
     3  O   -0.197129
     4  C    0.500174
     5  C   -0.147650
     6  C   -0.182792
     7  C   -0.131296
     8  C   -0.759966
     9  C    0.320943
    10  C    0.200532
    11  O   -0.397826
    12  O   -0.194720
    13  H    0.346530
    14  H    0.199707
    15  H    0.190062
    16  H    0.190260
    17  H    0.194915
    18  H    0.349433
 Sum of Mulliken charges =  -0.00000
 Mulliken charges with hydrogens summed into heavy atoms:
               1
     1  O   -0.382698
     2  C   -0.098480
     3  O    0.149401
     4  C    0.500174
     5  C    0.052058
     6  C    0.007270
     7  C    0.058964
     8  C   -0.565051
     9  C    0.320943
    10  C    0.200532
    11  O   -0.397826
    12  O    0.154713
 Electronic spatial extent (au):  <R**2>=           1832.0945
 Charge=             -0.0000 electrons
 Dipole moment (field-independent basis, Debye):
    X=              1.3557    Y=             -0.0218    Z=              0.3912  Tot=              1.4111
 Quadrupole moment (field-independent basis, Debye-Ang):
   XX=            -44.7501   YY=            -78.4816   ZZ=            -73.5939
   XY=              0.2385   XZ=             -0.4184   YZ=             11.4406
 Traceless Quadrupole moment (field-independent basis, Debye-Ang):
   XX=             20.8584   YY=            -12.8731   ZZ=             -7.9854
   XY=              0.2385   XZ=             -0.4184   YZ=             11.4406
 Octapole moment (field-independent basis, Debye-Ang**2):
  XXX=            -33.4467  YYY=             -0.7819  ZZZ=              2.2576  XYY=             15.4766
  XXY=             -1.6409  XXZ=              4.5982  XZZ=            -14.3933  YZZ=              1.5182
  YYZ=              2.2519  XYZ=            -18.7573
 Hexadecapole moment (field-independent basis, Debye-Ang**3):
 XXXX=           -879.4435 YYYY=          -1138.8002 ZZZZ=           -172.3121 XXXY=              9.6078
 XXXZ=              4.2610 YYYX=             -0.3382 YYYZ=             79.3391 ZZZX=             -3.9932
 ZZZY=             10.0585 XXYY=           -307.8913 XXZZ=           -231.4124 YYZZ=           -203.8934
 XXYZ=             46.0959 YYXZ=             -3.2130 ZZXY=             -3.8347
 N-N= 6.770707872820D+02 E-N=-2.781521439972D+03  KE= 6.073231185186D+02
 No NMR shielding tensors so no spin-rotation constants.
 Leave Link  601 at Tue Nov 25 03:44:22 2025, MaxMem=   536870912 cpu:               0.2 elap:               0.4
 (Enter /apps/t4/rhel9/isv/gaussian/G16C02/g16/l701.exe)
 ... and contract with generalized density number  0.
 Compute integral first derivatives.
 D1PCM: PCM CHGder 1st derivatives, ID1Alg=3 FixD1E=F DoIter=F DoCFld=F I1PDM=0.
 GePol: Maximum number of non-zero 1st derivatives   =     192
 Leave Link  701 at Tue Nov 25 03:44:24 2025, MaxMem=   536870912 cpu:               3.2 elap:               1.3
 (Enter /apps/t4/rhel9/isv/gaussian/G16C02/g16/l702.exe)
 L702 exits ... SP integral derivatives will be done elsewhere.
 Leave Link  702 at Tue Nov 25 03:44:26 2025, MaxMem=   536870912 cpu:               0.1 elap:               0.1
 (Enter /apps/t4/rhel9/isv/gaussian/G16C02/g16/l703.exe)
 Integral derivatives from FoFJK, PRISM(SPDF).
 Compute integral first derivatives, UseDBF=F ICtDFT=           0.
 Calling FoFJK, ICntrl=      2127 FMM=F ISym2X=0 I1Cent= 0 IOpClX= 0 NMat=1 NMatS=1 NMatT=0.
 FoFJK:  IHMeth= 1 ICntrl=    2127 DoSepK=T KAlg= 0 I1Cent=           0 FoldK=F
 IRaf=         1 NMat=       1 IRICut=       1 DoRegI=T DoRafI=F ISym2E= 0 IDoP0=0 IntGTp=1.
 FoFCou: FMM=F IPFlag=           0 FMFlag=      100000 FMFlg1=         800
         NFxFlg=           0 DoJE=F BraDBF=F KetDBF=F FulRan=T
         wScrn=  0.000000 ICntrl=      2527 IOpCl=  0 I1Cent=           0 NGrid=           0
         NMat0=    1 NMatS0=      1 NMatT0=    0 NMatD0=    1 NMtDS0=    0 NMtDT0=    0
 Symmetry not used in FoFCou.
 Leave Link  703 at Tue Nov 25 03:44:41 2025, MaxMem=   536870912 cpu:              54.0 elap:              14.0
 (Enter /apps/t4/rhel9/isv/gaussian/G16C02/g16/l716.exe)
 Dipole        = 5.33359552D-01-8.57792626D-03 1.53894198D-01
 ***** Axes restored to original set *****
 -------------------------------------------------------------------
 Center     Atomic                   Forces (Hartrees/Bohr)
 Number     Number              X              Y              Z
 -------------------------------------------------------------------
      1        8          -0.000254061    0.000635669   -0.000503679
      2        6           0.002423930    0.001162799    0.006364688
      3        8          -0.000273504   -0.000204882   -0.000149673
      4        6          -0.012958042    0.001830598   -0.015655134
      5        6           0.006638611   -0.012924590    0.009213042
      6        6           0.007137015    0.002269439    0.003944759
      7        6           0.006004051    0.006956625    0.000670611
      8        6          -0.003121282    0.006536187   -0.002327510
      9        6          -0.011408084   -0.010429936   -0.005011783
     10        6          -0.000816451   -0.001471750    0.006193300
     11        8          -0.001019556    0.000662435   -0.000577432
     12        8           0.000409893    0.000320603   -0.000263438
     13        1          -0.000300731    0.000224343   -0.000248295
     14        1           0.004616040    0.002066948   -0.002443790
     15        1          -0.000231754    0.000756374   -0.000711005
     16        1           0.000780868   -0.000522706    0.000136461
     17        1           0.002538185    0.002134381    0.001235648
     18        1          -0.000165126   -0.000002535    0.000133230
 -------------------------------------------------------------------
 Cartesian Forces:  Max     0.015655134 RMS     0.004961159
 Leave Link  716 at Tue Nov 25 03:44:42 2025, MaxMem=   536870912 cpu:               0.0 elap:               0.1
 (Enter /apps/t4/rhel9/isv/gaussian/G16C02/g16/l103.exe)

 GradGradGradGradGradGradGradGradGradGradGradGradGradGradGradGradGradGrad
 Berny optimization.
 FormGI is forming the generalized inverse of G from B-inverse, IUseBI=4.
 Internal  Forces:  Max     0.016128093 RMS     0.003311733
 Search for a local minimum.
 Step number   1 out of a maximum of   90
 All quantities printed in internal units (Hartrees-Bohrs-Radians)
 RMS Force = .33117D-02 SwitMx=.10000D-02 MixMth= 1
 Mixed Optimization -- RFO/linear search
 Second derivative matrix not updated -- first step.
 ITU=  0
     Eigenvalues ---    0.00914   0.00914   0.01469   0.01469   0.01696
     Eigenvalues ---    0.01821   0.02023   0.02058   0.02059   0.02081
     Eigenvalues ---    0.02160   0.02163   0.02172   0.02568   0.02568
     Eigenvalues ---    0.15990   0.15991   0.15998   0.15999   0.16000
     Eigenvalues ---    0.16000   0.22000   0.22436   0.24247   0.24307
     Eigenvalues ---    0.24963   0.24983   0.24983   0.25000   0.25000
     Eigenvalues ---    0.33582   0.33583   0.35591   0.35600   0.35702
     Eigenvalues ---    0.35702   0.40981   0.41780   0.44623   0.45575
     Eigenvalues ---    0.46075   0.46609   0.52972   0.52973   0.58622
     Eigenvalues ---    0.58623   0.99420   0.99420
 RFO step:  Lambda=-5.87149979D-03 EMin= 9.14192394D-03
 Linear search not attempted -- first point.
 Iteration  1 RMS(Cart)=  0.05949626 RMS(Int)=  0.00202983
 Iteration  2 RMS(Cart)=  0.00389584 RMS(Int)=  0.00090289
 Iteration  3 RMS(Cart)=  0.00000386 RMS(Int)=  0.00090289
 Iteration  4 RMS(Cart)=  0.00000000 RMS(Int)=  0.00090289
 ITry= 1 IFail=0 DXMaxC= 2.02D-01 DCOld= 1.00D+10 DXMaxT= 3.00D-01 DXLimC= 3.00D+00 Rises=F
 Variable       Old X    -DE/DX   Delta X   Delta X   Delta X     New X
                                 (Linear)    (Quad)   (Total)
    R1        2.28872   0.00034   0.00000   0.00034   0.00034   2.28906
    R2        2.52047  -0.00011   0.00000  -0.00019  -0.00019   2.52027
    R3        2.81341   0.00162   0.00000   0.00475   0.00475   2.81816
    R4        1.83679   0.00011   0.00000   0.00021   0.00021   1.83700
    R5        2.66511  -0.01613   0.00000  -0.03724  -0.03686   2.62824
    R6        2.64646  -0.00276   0.00000  -0.00706  -0.00652   2.63994
    R7        2.63653  -0.00805   0.00000  -0.01704  -0.01720   2.61933
    R8        2.04726  -0.00090   0.00000  -0.00248  -0.00248   2.04478
    R9        2.63199  -0.00454   0.00000  -0.00852  -0.00906   2.62293
   R10        2.04550   0.00025   0.00000   0.00069   0.00069   2.04620
   R11        2.63667  -0.00961   0.00000  -0.01948  -0.01986   2.61681
   R12        2.04551   0.00010   0.00000   0.00028   0.00028   2.04579
   R13        2.65870  -0.01422   0.00000  -0.03161  -0.03145   2.62725
   R14        2.04712  -0.00050   0.00000  -0.00137  -0.00137   2.04575
   R15        2.81340  -0.00159   0.00000  -0.00465  -0.00465   2.80875
   R16        2.28872  -0.00069   0.00000  -0.00069  -0.00069   2.28803
   R17        2.52048   0.00024   0.00000   0.00040   0.00040   2.52087
   R18        1.83679  -0.00017   0.00000  -0.00032  -0.00032   1.83647
    A1        2.14682  -0.00029   0.00000  -0.00198  -0.00248   2.14434
    A2        2.16177   0.00071   0.00000   0.00200   0.00149   2.16326
    A3        1.97342  -0.00048   0.00000  -0.00268  -0.00318   1.97024
    A4        1.90821  -0.00012   0.00000  -0.00070  -0.00070   1.90751
    A5        2.00194   0.00303   0.00000   0.02460   0.02021   2.02215
    A6        2.15281   0.00083   0.00000   0.01573   0.01131   2.16413
    A7        2.10251  -0.00305   0.00000  -0.00678  -0.00888   2.09363
    A8        2.09072   0.00177   0.00000   0.00442   0.00502   2.09574
    A9        2.12147  -0.00568   0.00000  -0.03054  -0.03131   2.09015
   A10        2.07047   0.00395   0.00000   0.02754   0.02675   2.09722
   A11        2.09595  -0.00032   0.00000  -0.00072  -0.00084   2.09511
   A12        2.09395  -0.00061   0.00000  -0.00412  -0.00421   2.08974
   A13        2.09320   0.00093   0.00000   0.00516   0.00507   2.09827
   A14        2.09611  -0.00063   0.00000  -0.00020  -0.00055   2.09557
   A15        2.09311   0.00129   0.00000   0.00611   0.00613   2.09924
   A16        2.09388  -0.00065   0.00000  -0.00559  -0.00556   2.08831
   A17        2.10812  -0.00171   0.00000  -0.00710  -0.00721   2.10091
   A18        2.06990   0.00436   0.00000   0.02550   0.02468   2.09458
   A19        2.10466  -0.00260   0.00000  -0.01653  -0.01731   2.08735
   A20        2.07177   0.00402   0.00000   0.01348   0.01351   2.08529
   A21        2.15281  -0.00110   0.00000  -0.00106  -0.00309   2.14971
   A22        2.05728  -0.00282   0.00000  -0.00780  -0.00983   2.04745
   A23        2.16177  -0.00126   0.00000  -0.00444  -0.00464   2.15713
   A24        1.97345   0.00078   0.00000   0.00356   0.00336   1.97681
   A25        2.14680   0.00051   0.00000   0.00254   0.00235   2.14915
   A26        1.90819   0.00014   0.00000   0.00086   0.00086   1.90905
    D1        0.07396   0.00020   0.00000   0.01642   0.01636   0.09032
    D2       -3.11782  -0.00095   0.00000  -0.04048  -0.04041   3.12496
    D3        0.92520  -0.00217   0.00000  -0.10046  -0.10139   0.82382
    D4       -2.45874   0.00113   0.00000   0.05272   0.05363  -2.40510
    D5       -2.16570  -0.00098   0.00000  -0.04286  -0.04377  -2.20947
    D6        0.73354   0.00232   0.00000   0.11033   0.11125   0.84479
    D7        2.94358   0.00223   0.00000   0.09745   0.09779   3.04137
    D8       -0.23325   0.00364   0.00000   0.14602   0.14537  -0.08788
    D9        0.03672  -0.00152   0.00000  -0.05416  -0.05339  -0.01667
   D10       -3.14011  -0.00011   0.00000  -0.00560  -0.00581   3.13726
   D11       -2.94077  -0.00232   0.00000  -0.09425  -0.09385  -3.03461
   D12        0.14435  -0.00010   0.00000   0.00410   0.00484   0.14920
   D13       -0.05490   0.00200   0.00000   0.07177   0.07117   0.01627
   D14        3.03023   0.00422   0.00000   0.17011   0.16985  -3.08311
   D15        0.00121  -0.00004   0.00000   0.00441   0.00472   0.00593
   D16        3.12865   0.00080   0.00000   0.03113   0.03118  -3.12336
   D17       -3.10617  -0.00122   0.00000  -0.04158  -0.04188   3.13513
   D18        0.02126  -0.00038   0.00000  -0.01486  -0.01542   0.00584
   D19       -0.01979   0.00074   0.00000   0.02529   0.02496   0.00517
   D20        3.13565   0.00008   0.00000  -0.00075  -0.00116   3.13449
   D21        3.13596  -0.00009   0.00000  -0.00134  -0.00156   3.13440
   D22        0.00821  -0.00074   0.00000  -0.02738  -0.02767  -0.01946
   D23        0.00078  -0.00010   0.00000  -0.00629  -0.00627  -0.00549
   D24       -3.10660  -0.00174   0.00000  -0.06857  -0.06911   3.10748
   D25        3.12852   0.00057   0.00000   0.01985   0.01977  -3.13489
   D26        0.02114  -0.00107   0.00000  -0.04243  -0.04306  -0.02192
   D27        0.03637  -0.00125   0.00000  -0.04197  -0.04159  -0.00522
   D28       -3.05186  -0.00338   0.00000  -0.13506  -0.13472   3.09660
   D29       -3.14012   0.00056   0.00000   0.02238   0.02181  -3.11832
   D30        0.05483  -0.00158   0.00000  -0.07072  -0.07133  -0.01649
   D31       -2.45933  -0.00060   0.00000  -0.01625  -0.01586  -2.47519
   D32        0.73289  -0.00136   0.00000  -0.05223  -0.05179   0.68111
   D33        0.62623   0.00180   0.00000   0.08197   0.08153   0.70776
   D34       -2.46473   0.00105   0.00000   0.04599   0.04561  -2.41913
   D35       -3.11775   0.00027   0.00000   0.01523   0.01528  -3.10247
   D36        0.07398  -0.00042   0.00000  -0.02017  -0.02022   0.05375
         Item               Value     Threshold  Converged?
 Maximum Force            0.016128     0.000450     NO 
 RMS     Force            0.003312     0.000300     NO 
 Maximum Displacement     0.202414     0.001800     NO 
 RMS     Displacement     0.059727     0.001200     NO 
 Predicted change in Energy=-3.440637D-03
 Lowest energy point so far.  Saving SCF results.
 GradGradGradGradGradGradGradGradGradGradGradGradGradGradGradGradGradGrad

 Leave Link  103 at Tue Nov 25 03:44:43 2025, MaxMem=   536870912 cpu:               0.1 elap:               0.5
 (Enter /apps/t4/rhel9/isv/gaussian/G16C02/g16/l202.exe)
                          Input orientation:                          
 ---------------------------------------------------------------------
 Center     Atomic      Atomic             Coordinates (Angstroms)
 Number     Number       Type             X           Y           Z
 ---------------------------------------------------------------------
      1          8           0       -0.554585    3.474119    0.454068
      2          6           0       -0.174273    2.528290   -0.200193
      3          8           0        0.729634    2.638946   -1.174557
      4          6           0       -0.762282    1.160966   -0.107113
      5          6           0       -2.151120    1.094381   -0.139347
      6          6           0       -2.786832   -0.136698   -0.178856
      7          6           0       -2.038311   -1.305563   -0.179194
      8          6           0       -0.655668   -1.244004   -0.133877
      9          6           0       -0.007661   -0.014611   -0.094396
     10          6           0        1.474759   -0.028227    0.012420
     11          8           0        2.182697   -0.804446   -0.589474
     12          8           0        1.950818    0.890983    0.853817
     13          1           0        1.066453    3.550524   -1.198176
     14          1           0       -2.732544    2.006931   -0.145052
     15          1           0       -3.867874   -0.181764   -0.220958
     16          1           0       -2.531011   -2.269229   -0.203344
     17          1           0       -0.073804   -2.156349   -0.102221
     18          1           0        2.922017    0.856263    0.853541
 ---------------------------------------------------------------------
                    Distance matrix (angstroms):
                    1          2          3          4          5
     1  O    0.000000
     2  C    1.211316   0.000000
     3  O    2.235878   1.333672   0.000000
     4  C    2.389297   1.491306   2.355776   0.000000
     5  C    2.926468   2.442892   3.428715   1.390807   0.000000
     6  C    4.292029   3.732034   4.589244   2.405801   1.386090
     7  C    5.044584   4.263040   4.920511   2.777987   2.402925
     8  C    4.755689   3.803464   4.251985   2.407480   2.775689
     9  C    3.573677   2.550548   2.958330   1.396995   2.413773
    10  C    4.071820   3.049638   3.012962   2.536301   3.798722
    11  O    5.185345   4.100485   3.782944   3.573292   4.752908
    12  O    3.620695   2.882312   2.942952   2.890880   4.225357
    13  H    2.315925   1.892177   0.972100   3.200731   4.184081
    14  H    2.693528   2.611438   3.666880   2.144535   1.082050
    15  H    4.979861   4.581213   5.477485   3.385349   2.140666
    16  H    6.109378   5.345130   5.972039   3.860557   3.385600
    17  H    5.678273   4.686741   4.978984   3.388009   3.857962
    18  H    4.370298   3.673288   3.478172   3.819654   5.174867
                    6          7          8          9         10
     6  C    0.000000
     7  C    1.387994   0.000000
     8  C    2.402084   1.384755   0.000000
     9  C    2.783133   2.407756   1.390280   0.000000
    10  C    4.267260   3.742989   2.457282   1.486326   0.000000
    11  O    5.030975   4.270405   2.908109   2.380465   1.210771
    12  O    4.956598   4.669591   3.511050   2.356872   1.333989
    13  H    5.429772   5.853159   5.204414   3.883585   3.799963
    14  H    2.144583   3.384633   3.857734   3.393255   4.676331
    15  H    1.082800   2.147550   3.384406   3.865902   5.349932
    16  H    2.147960   1.082584   2.138417   3.385627   4.595089
    17  H    3.383103   2.142208   1.082563   2.142774   2.634405
    18  H    5.885810   5.508619   4.264497   3.200003   1.893241
                   11         12         13         14         15
    11  O    0.000000
    12  O    2.238600   0.000000
    13  H    4.536770   3.473606   0.000000
    14  H    5.679872   4.917007   4.233690   0.000000
    15  H    6.093681   6.013576   6.263586   2.466803   0.000000
    16  H    4.951135   5.584919   6.913824   4.281303   2.478916
    17  H    2.675230   3.781446   5.921968   4.940004   4.278792
    18  H    2.320956   0.971819   3.861568   5.856218   6.952314
                   16         17         18
    16  H    0.000000
    17  H    2.461877   0.000000
    18  H    6.373478   4.354796   0.000000
 Stoichiometry    C8H6O4
 Framework group  C1[X(C8H6O4)]
 Deg. of freedom    48
 Full point group                 C1      NOp   1
 RotChk:  IX=3 Diff= 7.55D-02
 Largest Abelian subgroup         C1      NOp   1
 Largest concise Abelian subgroup C1      NOp   1
                         Standard orientation:                         
 ---------------------------------------------------------------------
 Center     Atomic      Atomic             Coordinates (Angstroms)
 Number     Number       Type             X           Y           Z
 ---------------------------------------------------------------------
      1          8           0       -1.241600    2.466038   -0.584813
      2          6           0       -1.003695    1.478866    0.075626
      3          8           0       -1.793848    1.063313    1.066410
      4          6           0        0.258201    0.691060   -0.029126
      5          6           0        1.436735    1.429543   -0.022304
      6          6           0        2.662040    0.782131    0.004734
      7          6           0        2.714981   -0.604791    0.017929
      8          6           0        1.544200   -1.343992   -0.002091
      9          6           0        0.309766   -0.704982   -0.028878
     10          6           0       -0.900941   -1.563467   -0.108616
     11          8           0       -1.029611   -2.598934    0.505564
     12          8           0       -1.829476   -1.088859   -0.940541
     13          1           0       -2.590420    1.619666    1.096808
     14          1           0        1.393068    2.510703   -0.026583
     15          1           0        3.575786    1.362670    0.027058
     16          1           0        3.669982   -1.114451    0.032408
     17          1           0        1.586990   -2.425492   -0.023751
     18          1           0       -2.606853   -1.671778   -0.922555
 ---------------------------------------------------------------------
 Rotational constants (GHZ):           1.1681638           1.0401320           0.6087828
 Leave Link  202 at Tue Nov 25 03:44:43 2025, MaxMem=   536870912 cpu:               0.0 elap:               0.0
 (Enter /apps/t4/rhel9/isv/gaussian/G16C02/g16/l301.exe)
 Standard basis: 6-311+G(d,p) (5D, 7F)
 Ernie: Thresh=  0.10000D-02 Tol=  0.10000D-05 Strict=F.
 There are   312 symmetry adapted cartesian basis functions of A   symmetry.
 There are   300 symmetry adapted basis functions of A   symmetry.
   300 basis functions,   480 primitive gaussians,   312 cartesian basis functions
    43 alpha electrons       43 beta electrons
       nuclear repulsion energy       678.1915221221 Hartrees.
 IExCor=20419 DFT=T Ex+Corr=CAM-B3LYP ExCW=0 ScaHFX=  1.000000
 ScaDFX=  1.000000  1.000000  1.000000  0.810000 ScalE2=  1.000000  1.000000
 IRadAn=      5 IRanWt=     -1 IRanGd=            0 ICorTp=0 IEmpDi=  4
 HFx  wShort=  0.000000 wLong=  0.330000 cFull=  0.190000 cShort=  0.000000 cLong=  0.460000
 DFx  wShort=  0.000000 wLong=  0.330000 cFull=  0.190000 cShort=  0.000000 cLong=  0.460000
 NAtoms=   18 NActive=   18 NUniq=   18 SFac= 1.00D+00 NAtFMM=   60 NAOKFM=F Big=F
 Integral buffers will be    131072 words long.
 Raffenetti 2 integral format.
 Two-electron integral symmetry is turned on.
 ------------------------------------------------------------------------------
 Polarizable Continuum Model (PCM)
 =================================
 Model                : PCM.
 Atomic radii         : SMD-Coulomb.
 Polarization charges : Total charges.
 Charge compensation  : None.
 Solution method      : On-the-fly selection.
 Cavity type          : VdW (van der Waals Surface) (Alpha=1.000).
 Cavity algorithm     : GePol (No added spheres)
                        Default sphere list used, NSphG=   18.
                        Lebedev-Laikov grids with approx.  5.0 points / Ang**2.
                        Smoothing algorithm: York/Karplus (Gamma=1.0000).
                        Polarization charges: spherical gaussians, with
                                              point-specific exponents (IZeta= 3).
                        Self-potential: point-specific (ISelfS= 7).
                        Self-field    : sphere-specific E.n sum rule (ISelfD= 2).
 1st derivatives      : Analytical E(r).r(x)/FMM algorithm (CHGder, D1EAlg=3).
                        Cavity 1st derivative terms included.
 Solvent              : Water, Eps=  78.355300 Eps(inf)=   1.777849
 ------------------------------------------------------------------------------
 Spheres list:
 ISph  on   Nord     Re0    Alpha      Xe            Ye            Ze
    1   O      1    1.5200  1.000     -1.241600      2.466038     -0.584813
    2   C      2    1.8500  1.000     -1.003695      1.478866      0.075626
    3   O      3    1.5200  1.000     -1.793848      1.063313      1.066410
    4   C      4    1.8500  1.000      0.258201      0.691060     -0.029126
    5   C      5    1.8500  1.000      1.436735      1.429543     -0.022304
    6   C      6    1.8500  1.000      2.662040      0.782131      0.004734
    7   C      7    1.8500  1.000      2.714981     -0.604791      0.017929
    8   C      8    1.8500  1.000      1.544200     -1.343992     -0.002091
    9   C      9    1.8500  1.000      0.309766     -0.704982     -0.028878
   10   C     10    1.8500  1.000     -0.900941     -1.563467     -0.108616
   11   O     11    1.5200  1.000     -1.029611     -2.598934      0.505564
   12   O     12    1.5200  1.000     -1.829476     -1.088859     -0.940541
   13   H     13    1.2000  1.000     -2.590420      1.619666      1.096808
   14   H     14    1.2000  1.000      1.393068      2.510703     -0.026583
   15   H     15    1.2000  1.000      3.575786      1.362670      0.027058
   16   H     16    1.2000  1.000      3.669982     -1.114451      0.032408
   17   H     17    1.2000  1.000      1.586990     -2.425492     -0.023751
[...]
 -0.0011979,0.0015635,0.0047624,-0.1519938,0.0326085,0.2009715,0.003046
 8,0.0365759,0.0218773,-0.0023929,-0.00262,0.004016,-0.1520866,-0.10559
 15,-0.2089013,-0.0030627,-0.0123792,-0.0817033,-0.0013951,0.0840405,0.
 0073207,-0.1299034,-0.6771018,-0.0569268,-0.0077388,0.1012428,0.178945
 4,-0.0374127,0.1000949,0.0849582,-0.0772035,2.7057057,-0.1729142,0.031
 8405,-0.2099111,1.7259485,1.1568251,0.0446419,1.1132257,1.6234251,-1.5
 645087,0.5237443,0.3919625,0.4754305,-1.1311767,-0.5215422,0.2144404,-
 0.4835618,-0.9773838,-1.077806,-0.4481271,-0.4943045,-0.2773065,-1.093
 658,-0.5705951,-0.3520163,-0.6063961,-1.1040308,0.4727935,0.0338802,0.
 0015739,0.0682314,0.4073351,-0.0788839,-0.0057627,-0.0842957,0.4379395
 ,0.0892071,0.0583827,0.002226,0.0710436,0.0289052,0.0073442,0.0186097,
 0.0236474,0.1903757,-0.055374,-0.0165318,-0.000819,-0.0087367,0.123052
 9,0.0017564,-0.0039495,0.0049912,0.1889945,0.0850316,-0.0703381,-0.002
 9594,-0.0780844,-0.0173274,-0.0009296,-0.004734,0.0033258,0.1889708,0.
 0867517,0.0724397,-0.0082501,0.0598729,0.0319309,0.0004322,-0.0298746,
 -0.0078939,0.1899008,0.4537916,0.0756865,0.0722702,0.0413451,0.425036,
 -0.032768,0.0799546,-0.0278094,0.4392375\Polar=175.7191898,2.0998779,1
 73.6712519,-7.1794504,11.9925926,95.0747799\Quadrupole=7.8117327,-2.17
 54386,-5.6362941,11.5227614,4.6984256,-6.9420372\PG=C01 [X(C8H6O4)]\NI
 mag=0\\0.16076287,-0.18271205,0.52473879,-0.15979622,0.29185823,0.2483
 3921,-0.15088570,0.13276924,0.09429146,0.47444883,0.14418511,-0.477755
 01,-0.23144880,-0.03229596,0.81350817,0.09896619,-0.22050684,-0.219214
 80,-0.19803878,0.18246894,0.42796673,-0.03234394,0.04190930,0.06711373
 ,-0.17339504,-0.02476261,0.09043742,0.31103234,0.04174308,0.01424595,-
 0.04048889,-0.03588175,-0.12812337,0.01279234,0.16038415,0.56064486,0.
 06567654,-0.04298947,-0.04254618,0.08354833,0.00448108,-0.13623945,-0.
 17852223,0.03098386,0.21148391,0.02032524,0.01214834,0.00624525,-0.122
 16944,-0.03975472,-0.00130021,-0.01836665,-0.03497985,0.01631423,0.681
 33425,-0.00398008,-0.04950446,-0.01662188,-0.04271327,-0.18640825,0.02
 329596,-0.01360531,-0.00465933,0.00355233,-0.01032021,0.66165710,0.001
 95339,-0.02796097,0.01225064,-0.00039069,0.01024026,-0.07846067,0.0215
 5827,0.02419497,0.00061279,-0.02239756,-0.01136961,0.16644890,-0.00320
 231,0.00509325,0.00318443,-0.01463873,-0.01852176,-0.00123127,0.002251
 73,0.00142791,-0.00178473,-0.33125689,-0.04061136,-0.00187215,0.695228
 40,-0.00044377,-0.00286508,0.00127128,-0.03261073,0.00077436,-0.002343
 73,-0.00316482,-0.00609691,0.00268816,0.02752661,-0.13043546,-0.004798
 57,-0.03304904,0.74590246,-0.00021513,-0.00181464,-0.00054321,0.003033
 20,0.00421142,0.00298341,0.00014828,0.00085634,0.00080038,-0.00189805,
 -0.00351356,-0.06604800,0.00419179,-0.00650486,0.14347765,0.00114653,-
 0.00033678,-0.00025975,-0.00582186,0.00290793,-0.00033586,-0.00067879,
 -0.00172948,0.00073457,-0.02019197,-0.03339805,-0.00087639,-0.17982500
 ,-0.12175541,-0.00100320,0.76580597,0.00106822,0.00089432,-0.00028498,
 -0.00164490,0.00270734,0.00006790,-0.00009465,-0.00030429,-0.00016809,
 -0.08840469,0.03148109,0.00291744,-0.04663363,-0.30140313,0.00042090,0
 .00153159,0.68017869,-0.00033512,0.00164351,-0.00034334,-0.00002233,-0
 .00014793,0.00819261,-0.00110797,-0.00137698,-0.00018525,0.00302333,-0
 .00118775,0.00724372,-0.00274779,-0.00028311,-0.06800006,0.00283265,0.
 00241892,0.14411969,0.00058015,0.00172876,0.00006105,-0.00396777,-0.00
 120319,-0.00021197,0.00064445,-0.00038497,-0.00022209,-0.06321277,0.03
 388466,0.00219103,0.07656747,0.03501817,0.00084008,-0.20207779,0.05965
 610,0.00078254,0.69512972,-0.00061040,-0.00218992,0.00011001,0.0031465
 1,0.00323920,-0.00045818,-0.00092411,-0.00065411,0.00053971,0.03048036
 ,-0.01667850,-0.00114783,-0.01888570,-0.05951303,-0.00060930,0.1339616
 5,-0.28699647,-0.00128830,0.03253209,0.75085181,0.00014319,-0.00015032
 ,0.00013861,-0.00030425,-0.00000800,-0.00124391,0.00016158,0.00010866,
 0.00003280,-0.00030210,0.00080190,-0.00593355,0.00095934,-0.00023581,0
 .00731356,0.00033313,-0.00217473,-0.06707948,0.00306164,0.00318095,0.1
 4412082,0.00065245,-0.00179448,0.00069020,0.00130677,0.00822177,-0.000
 78361,-0.00121314,-0.00044919,0.00079544,0.06849662,-0.02313340,-0.003
 26713,-0.05670824,-0.03525745,-0.00117010,-0.03161382,0.08248479,-0.00
 000184,-0.34371684,-0.04985324,-0.00209295,0.71325773,-0.00092851,-0.0
 0427727,-0.00089917,0.00799505,0.00385279,-0.00000940,-0.00160734,-0.0
 0010416,0.00056285,0.03279897,-0.06247076,-0.00062259,-0.03835385,-0.0
 2441792,-0.00032150,0.02858141,0.04867440,-0.00035070,0.02525627,-0.13
 752443,0.00217723,-0.04100539,0.72782583,-0.00029555,0.00159898,-0.000
 76557,0.00074382,0.00085544,0.00729535,-0.00081932,-0.00058857,-0.0002
 1465,0.00091752,-0.00065857,0.00875561,-0.00008413,0.00041245,-0.00610
 718,-0.00000704,0.00021398,0.00730410,-0.00288921,0.00002102,-0.068003
 60,0.01036638,-0.00264716,0.14358452,-0.00176388,-0.00675283,-0.003258
 29,0.01587286,-0.00594665,0.00373290,-0.00236713,-0.00135730,0.0002209
 9,-0.17714491,0.11148883,-0.00450589,-0.03780119,0.02344908,-0.0001153
 0,-0.00050659,0.00641090,-0.00050471,-0.02163905,-0.03276110,-0.000689
 46,-0.16774177,-0.11239069,0.00201830,0.65675586,-0.00248392,0.0007173
 6,0.00001972,0.00912990,-0.02996836,-0.00039068,0.00227731,0.00061411,
 -0.00163898,0.05423537,-0.25000542,0.00835014,0.07941142,0.04378440,0.
 00004300,0.00296774,-0.07936096,0.00009450,-0.08768824,0.03297336,-0.0
 0403973,-0.04427920,-0.29402963,-0.00183437,-0.00008049,0.68556301,-0.
 00054584,0.00108872,0.00201505,-0.00303288,-0.00481407,-0.00021742,0.0
 0166149,0.00146890,-0.00077056,-0.00670884,0.00736954,-0.06398268,0.00
 194357,0.00326129,0.00879886,0.00025288,-0.00293512,-0.00595730,-0.003
 28682,0.00179798,0.00719682,0.00368479,-0.00313838,-0.06597915,0.02489
 473,0.01973806,0.16716088,-0.00041022,-0.00669676,-0.00118175,0.004271
 60,0.01155249,-0.00110584,-0.00380460,-0.00214805,0.00057314,-0.021457
 26,0.01041274,0.00546248,0.00941763,0.00467193,-0.00102439,0.00278353,
 -0.00416607,0.00014380,0.00180286,-0.00044319,0.00006777,-0.02051811,-
 0.01591328,-0.00545604,-0.20602462,-0.00285780,-0.01066129,0.73695576,
 -0.00062598,0.00135909,0.00105675,0.00639087,-0.00359824,-0.00124725,-
 0.00204353,0.00182271,-0.00086192,0.02547993,0.00731794,0.00118365,0.0
 0444470,-0.00425010,-0.00037223,0.00017477,-0.00352366,0.00026079,-0.0
 0498745,-0.00490965,-0.00019032,-0.03003014,0.00667037,-0.00139256,-0.
 00568873,-0.10229721,0.00423576,-0.14886865,0.54974118,0.00025175,-0.0
 0166246,0.00010056,0.00172186,0.00064158,-0.00361715,-0.00172828,0.001
 20293,-0.00141084,-0.00119302,-0.00340162,-0.00018584,0.00037901,0.000
 68097,0.00729150,0.00055079,-0.00005208,-0.00123486,-0.00003407,0.0002
 3350,0.00819670,0.00215280,0.00003503,0.00293699,-0.02226641,0.0103475
 3,-0.07871906,-0.08503479,0.25381171,0.42927853,0.00003941,0.00335923,
 0.00058278,-0.00163001,-0.00619255,0.00135566,0.00119352,0.00136968,-0
 .00094827,-0.00308694,-0.00620667,-0.00088039,-0.00447553,0.00047934,-
 0.00138218,-0.00133074,0.00256640,0.00008216,0.00121277,-0.00035059,-0
 .00135400,-0.00119930,0.00423655,0.00177328,-0.03566186,0.03649991,0.0
 2452183,-0.32684268,0.20926464,0.16229624,0.33610550,0.00006665,-0.001
 45682,-0.00024858,-0.00008213,0.00256790,-0.00088237,0.00007551,-0.000
 83764,0.00060794,-0.00192440,0.00201197,0.00091453,0.00131164,0.000858
 84,0.00093976,0.00023106,-0.00027655,-0.00019194,0.00103132,0.00082713
 ,0.00098603,-0.00130283,-0.00484230,-0.00057740,0.02046625,0.00620765,
 -0.01283206,0.22060124,-0.30324465,-0.17729430,-0.25925900,0.35058963,
 -0.00000267,-0.00060411,-0.00022958,-0.00051451,0.00145446,0.00011549,
 0.00022998,-0.00051004,0.00071065,0.00121800,0.00292088,0.00205010,0.0
 0051421,-0.00097494,-0.00077701,-0.00014015,0.00001365,0.00013682,0.00
 039011,0.00012743,-0.00034757,-0.00245905,-0.00238854,-0.00057248,0.01
 231545,-0.01202918,0.01250461,0.17426431,-0.17753258,-0.21771940,-0.20
 374332,0.26135023,0.24712333,0.00001954,0.00186790,0.00037996,-0.00062
 869,-0.00352961,-0.00042175,0.00040422,0.00313736,-0.00214426,0.000476
 89,-0.00257874,-0.00201876,-0.00103794,-0.00052621,0.00085340,-0.00091
 919,0.00029827,-0.00017239,-0.00105637,-0.00157723,0.00168371,-0.00536
 051,0.00475844,-0.00087890,-0.02429432,-0.03184191,-0.03130248,-0.1567
 7816,-0.04161809,-0.04852938,0.03723007,0.01190151,0.01108564,0.637393
 58,0.00059590,0.00032997,-0.00041023,-0.00346394,-0.00136278,0.0020268
 1,0.00546867,-0.00343369,0.00389530,0.00103482,-0.00221318,-0.00093011
 ,-0.00168394,-0.00027845,0.00049498,-0.00023117,0.00091371,-0.00010043
 ,0.00005610,0.00005472,0.00046412,0.00019615,0.00152579,0.00021480,-0.
 01063675,0.00186262,-0.01013658,-0.03053800,-0.14284044,-0.07808078,0.
 01204853,-0.05461266,-0.07766774,0.01463550,0.23111166,-0.00017798,0.0
 0112927,0.00071841,0.00054342,-0.00091047,-0.00139949,-0.00264088,0.00
 355320,-0.00206355,0.00143256,-0.00089965,-0.00079170,-0.00085557,-0.0
 0050879,-0.00021570,-0.00041689,0.00042895,0.00002900,-0.00015159,-0.0
 0075510,-0.00017110,-0.00180981,0.00277262,0.00079429,-0.01016209,-0.0
 1386508,0.00000189,-0.03807846,-0.07522113,-0.13817856,0.01395097,-0.0
 7735821,-0.04325681,0.04806810,0.17623820,0.21471935,0.00411065,0.0010
 6572,-0.00740726,-0.02248820,-0.03785603,0.00806076,-0.08341770,-0.130
 14844,0.01553407,-0.00044829,-0.00046191,0.00504145,0.00021078,0.00007
 208,0.00015106,0.00008324,-0.00012214,-0.00038271,0.00001336,-0.000043
 43,0.00003584,-0.00013099,-0.00013188,-0.00034755,-0.00011183,0.000181
 67,-0.00016243,0.00017996,-0.00108550,0.00044204,-0.00007456,0.0001118
 4,0.00002255,-0.00026886,0.00039604,-0.00039820,0.10229746,0.00522416,
 -0.00311525,-0.00405651,-0.00940049,-0.00060691,0.00637030,-0.16346471
 ,-0.43232444,-0.00234707,-0.00046844,0.00215304,-0.00093995,0.00005739
 ,0.00001622,0.00048178,-0.00013031,-0.00006113,0.00008277,-0.00014673,
 0.00022806,0.00001052,0.00025677,0.00019842,0.00005166,0.00024052,-0.0
 0000464,-0.00028128,0.00018267,-0.00025813,-0.00025195,-0.00014797,0.0
 0014053,0.00009268,-0.00021909,0.00034500,-0.00015147,0.16791743,0.433
 21606,-0.00556799,-0.00093849,0.00004869,0.01847259,0.03431963,-0.0014
 7504,0.00263747,-0.03296677,-0.02989944,0.00509366,-0.00228178,0.00050
 601,0.00047342,0.00147925,-0.00017959,0.00046706,-0.00036148,-0.000029
 84,-0.00015954,-0.00004141,-0.00001734,-0.00000494,0.00009067,0.000001
 10,-0.00038608,-0.00038232,0.00022856,-0.00005852,0.00014877,-0.000029
 13,0.00002495,-0.00006539,-0.00003659,-0.00014684,-0.00012243,-0.00011
 424,-0.02081748,0.00104668,0.03096561,0.00095698,-0.00051335,-0.000243
 71,-0.00039341,0.00188490,0.00066468,0.00011191,-0.00007820,-0.0001942
 5,-0.01261463,0.02566927,-0.00049822,-0.14452713,0.13101425,-0.0023615
 7,0.01233920,-0.01441109,0.00023265,-0.00083549,-0.00313947,-0.0001023
 5,-0.00032936,-0.00070457,0.00000848,-0.00504149,-0.00165709,-0.000447
 72,0.00091997,0.00117476,-0.00005353,-0.00096950,0.00020155,0.00030502
 ,-0.00032055,-0.00018739,-0.00009356,-0.00004470,-0.00000946,-0.000021
 90,0.14944784,-0.00103958,0.00038810,0.00050887,-0.00096485,-0.0012845
 8,-0.00050437,0.00016798,0.00034981,-0.00008292,-0.00279596,0.00554067
 ,-0.00007757,0.13247694,-0.26197939,0.00561022,0.01613574,-0.01689230,
 0.00055607,-0.00324461,-0.00309619,-0.00001050,-0.00077478,-0.00005551
 ,0.00001096,-0.00112599,0.00108608,-0.00006551,-0.00042902,0.00029459,
 -0.00014277,0.00000283,-0.00005448,0.00005229,0.00007494,0.00001678,0.
 00006604,-0.00000390,0.00003961,-0.00006336,-0.13935847,0.27514494,-0.
 00011942,-0.00047444,0.00025497,-0.00017961,-0.00144523,-0.00432411,0.
 00069890,0.00067079,-0.00018562,-0.00016289,0.00207783,0.00431297,-0.0
 0284398,0.00593611,-0.04004127,-0.00008464,-0.00098868,0.00494041,-0.0
 0068547,0.00016620,0.00740766,0.00046609,0.00035398,-0.00122472,0.0002
 8203,-0.00037377,0.00654475,-0.00023142,-0.00019835,0.00082370,-0.0001
 4329,0.00000308,-0.00024821,0.00007643,0.00009062,-0.00002174,0.000160
 47,-0.00010113,0.00005184,0.00278252,-0.00574119,0.02700805,0.00001418
 ,-0.00044321,-0.00007923,-0.00009178,0.00103908,-0.00003570,-0.0002795
 1,-0.00035660,0.00014538,0.00081646,-0.00232095,-0.00004301,-0.0084136
 3,0.00171178,-0.00013810,-0.34618408,-0.01439753,-0.00182233,-0.010867
 66,-0.00337189,-0.00014574,0.00015793,0.00283853,-0.00004960,0.0004375
 3,0.00018240,0.00005171,0.00032073,-0.00002224,0.00002437,-0.00019525,
 0.00003740,0.00004401,-0.00014199,-0.00004272,-0.00006567,-0.00000525,
 0.00002433,0.00003146,0.00077252,0.00000602,0.00000728,0.36337661,0.00
 013031,-0.00042468,-0.00009198,-0.00097463,0.00118151,-0.00014159,-0.0
 0035082,-0.00056881,0.00029386,-0.00234278,-0.00456727,-0.00018656,-0.
 02913716,0.00233707,-0.00023763,-0.01416024,-0.06025181,-0.00001468,0.
 02745040,0.00577458,0.00015363,0.00272513,-0.00406622,-0.00007138,0.00
 017906,-0.00107295,-0.00010857,-0.00000949,0.00002744,-0.00004724,-0.0
 0000877,0.00006180,0.00004137,0.00002349,0.00003912,0.00003184,0.00000
 044,-0.00000575,0.00010331,0.00071296,0.00130344,0.00000508,0.01537473
 ,0.05882495,-0.00008475,-0.00007011,0.00000485,0.00005775,-0.00001026,
 0.00003641,-0.00006975,-0.00009655,-0.00001040,-0.00058656,0.00005199,
 0.00736447,0.00000246,0.00039424,0.00458379,-0.00192030,-0.00005575,-0
 .04149392,0.00030919,0.00006560,0.00496424,0.00000283,-0.00048097,0.00
 788885,-0.00001760,0.00036546,-0.00092641,0.00017788,0.00003510,-0.001
 19342,0.00018036,-0.00012694,0.00006130,-0.00021341,-0.00010581,0.0000
 1110,0.00001333,-0.00005332,0.00002142,0.00003944,-0.00007030,-0.00423
 700,0.00204296,0.00021715,0.02747056,0.00003087,-0.00010506,-0.0000566
 9,0.00006387,0.00010471,0.00004833,0.00000074,-0.00004166,-0.00000316,
 -0.00069337,0.00067375,0.00008614,-0.00134264,0.00338312,0.00000668,0.
 01194879,0.01744426,0.00012358,-0.11690225,-0.11474619,-0.00093871,-0.
 00948516,-0.02866733,-0.00009416,-0.00541637,0.00038482,0.00004775,0.0
 0099792,-0.00145364,0.00014414,-0.00047110,0.00034070,0.00011299,-0.00
 078022,-0.00012849,-0.00033682,0.00001137,0.00000266,-0.00000712,0.000
 41584,0.00076339,-0.00000852,0.00084584,-0.00081208,0.00001871,0.11929
 050,-0.00006176,-0.00016253,-0.00002605,0.00009189,0.00028659,-0.00002
 948,-0.00010833,-0.00010736,0.00007094,0.00068300,0.00006008,-0.000076
 07,0.00349172,-0.00256908,-0.00002071,-0.01338004,-0.01703889,-0.00011
 559,-0.11498351,-0.28952830,-0.00143957,0.00218576,0.00341114,0.000046
 88,0.00041187,0.00165964,-0.00007271,0.00056079,0.00009055,-0.00001755
 ,-0.00023244,0.00005795,0.00003338,-0.00013661,-0.00006602,-0.00001694
 ,0.00000375,0.00000746,0.00001008,-0.00067744,-0.00080084,0.00001216,-
 0.00002035,0.00121112,-0.00000176,0.12245756,0.30290870,0.00004304,-0.
 00021917,0.00005915,-0.00008884,-0.00013661,-0.00119498,0.00018174,0.0
 0015176,0.00001454,-0.00032031,0.00017776,-0.00092823,0.00036163,-0.00
 023433,0.00789203,-0.00020366,-0.00022273,0.00495971,-0.00086378,-0.00
 136342,-0.04148846,-0.00050356,-0.00017349,0.00457922,0.00004737,0.000
 52044,0.00737098,0.00000139,-0.00007311,0.00003774,0.00009116,0.000053
 68,0.00000793,0.00010685,0.00002328,-0.00001315,0.00005783,-0.00002355
 ,0.00000410,-0.00002137,-0.00003857,-0.00024511,0.00005165,0.00001346,
 -0.00430471,0.00090489,0.00160306,0.02746499,-0.00012584,-0.00036704,-
 0.00017191,0.00066552,-0.00032134,0.00014812,-0.00007775,-0.00003059,-
 0.00002357,-0.00093104,-0.00292788,0.00013460,-0.00063786,-0.00063335,
 -0.00001153,-0.00508003,-0.00138972,-0.00009955,-0.01154216,0.02661710
 ,-0.00059295,-0.14597129,0.13312779,-0.00440848,0.01104371,-0.01317560
 ,0.00025048,-0.00082427,-0.00077805,0.00022798,-0.00009700,-0.00057720
 ,-0.00037565,0.00035287,0.00006910,0.00016042,0.00000339,0.00001358,0.
 00000187,0.00008309,0.00010659,0.00001374,-0.00057318,0.00119647,0.000
 04898,0.00148127,-0.00030595,0.00011048,0.15221047,-0.00016576,-0.0008
 9571,-0.00026515,0.00128252,0.00054379,0.00000393,-0.00029374,-0.00022
 540,0.00010765,-0.00346693,-0.00302796,0.00027516,-0.00056271,0.000261
 26,0.00000115,-0.00127852,0.00114305,0.00002956,-0.00394090,0.00698806
 ,-0.00001897,0.13167801,-0.26050157,0.00428577,0.01530675,-0.01810875,
 0.00043312,0.00206103,-0.00086951,-0.00076340,-0.00006139,0.00143555,0
 .00043574,-0.00017501,0.00011960,0.00014520,0.,0.00002749,-0.00000183,
 0.00008992,-0.00000302,0.00000105,-0.00024367,0.00018768,0.00000454,0.
 00040185,0.00059406,-0.00002465,-0.14059293,0.27235605,0.00005503,0.00
 012386,-0.00025016,0.00028239,0.00012668,0.00082959,-0.00011676,-0.000
 03549,-0.00002265,0.00012022,-0.00051165,0.00654685,-0.00050896,-0.000
 28089,-0.00123301,-0.00002617,0.00063308,0.00741361,0.00072612,-0.0000
 0638,0.00494331,-0.00452401,0.00487568,-0.04007234,-0.00165128,0.00067
 169,0.00430589,0.00145060,-0.00039890,-0.00431555,0.00047784,-0.000078
 95,0.00025896,-0.00088988,-0.00036798,-0.00019518,0.00000606,0.0000286
 8,-0.00001223,0.00000410,-0.00000506,-0.00080409,-0.00001318,0.0000293
 1,-0.00024482,0.00005947,0.00002727,-0.00423629,0.00452071,-0.00464246
 ,0.02703631,0.00009303,-0.00022018,-0.00009404,-0.00051881,0.00048840,
 0.00005094,0.00030535,-0.00047609,0.00029988,0.00012471,0.00012859,0.0
 0032282,0.00019112,0.00011443,0.00009507,0.00012261,-0.00019610,-0.000
 02395,-0.00013264,-0.00003115,0.00007630,0.00011703,0.00010982,-0.0004
 9781,0.00140505,-0.00120628,-0.00116093,-0.02099003,-0.00972767,-0.009
 35152,0.00025321,0.00676888,0.00673308,-0.48429037,0.01241157,-0.00896
 794,0.00008019,0.00006770,-0.00003208,0.00002891,0.00000275,-0.0000282
 2,0.00001054,0.00000297,-0.00000151,0.00000411,0.00002007,0.00004349,0
 .00002010,-0.00003852,0.00002769,0.50317589,0.00003838,-0.00002684,0.0
 0001735,-0.00077334,0.00044585,-0.00051230,0.00013705,-0.00023794,0.00
 030477,0.00007056,-0.00025131,0.00003367,-0.00027582,-0.00012606,0.000
 33487,-0.00009188,0.00011661,-0.00002871,-0.00003426,0.00015370,0.0003
 8490,0.00013171,0.00013106,0.00005806,-0.00121273,0.00037971,-0.005009
 08,-0.03797257,-0.00153226,-0.00523909,0.00263225,0.00056617,0.0051850
 3,0.04550508,-0.03151174,-0.01467848,0.00010426,0.00000436,0.00002689,
 -0.00001107,0.00000228,0.00000589,0.00000491,0.00000880,-0.00006233,-0
 .00000237,-0.00001426,-0.00003382,-0.00003099,-0.00002467,-0.00018848,
 -0.00821919,0.03191655,0.00005155,-0.00005154,-0.00003730,-0.00012292,
 0.00012186,-0.00003256,0.00017634,0.00007954,-0.00010647,0.00050479,0.
 00019788,0.00023862,-0.00008128,0.00004128,0.00000386,0.00010296,0.000
 12882,-0.00001563,0.00014276,-0.00057248,-0.00002952,-0.00154153,0.000
 16382,-0.00020032,0.00004534,-0.00559643,0.00042428,-0.03930886,-0.003
 24418,-0.00206190,0.00311421,0.00480089,0.00021845,0.02446396,-0.01552
 601,-0.02985282,-0.00000981,0.00004116,-0.00003389,0.00000129,-0.00000
 234,-0.00001249,-0.00000627,0.00001063,0.00000368,-0.00010748,0.000012
 66,0.00002053,0.00006624,-0.00000643,0.00005180,0.01250872,0.01940087,
 0.03142169\\0.00000185,-0.00000181,0.00000492,-0.00001220,-0.00000032,
 0.00000583,0.00000782,0.00000314,0.00000139,0.00000158,0.00000562,0.00
 000633,0.00000556,0.00000759,0.00000324,-0.00000187,-0.00001479,0.0000
 0219,-0.00001492,0.00000636,-0.00000204,0.00001175,0.00000950,-0.00000
 510,0.00000504,-0.00001445,-0.00000466,-0.00000276,-0.00000087,-0.0000
 0205,0.00000039,-0.00000298,-0.00000783,0.00000074,0.00000374,0.000003
 40,-0.00000227,0.00000423,0.00000142,0.00000028,-0.00000020,0.00000585
 ,-0.00000012,0.00000152,0.00000334,0.00000234,-0.00000121,-0.00000341,
 -0.00000155,-0.00000129,-0.00000511,-0.00000167,-0.00000378,-0.0000077
 3\\\@
 The archive entry for this job was punched.


 I WANT IT ALL - RICH, THIN, AND CHOCOLATE.
 Job cpu time:       0 days  0 hours 26 minutes  9.1 seconds.
 Elapsed time:       0 days  0 hours  6 minutes 38.9 seconds.
 File lengths (MBytes):  RWF=    199 Int=      0 D2E=      0 Chk=     14 Scr=      1
 Normal termination of Gaussian 16 at Tue Nov 25 04:02:31 2025.
