 Entering Gaussian System, Link 0=g16
 Input=sub_18959-31-4.gjf
 Output=sub_18959-31-4.log
 Initial command:
 /apps/t4/rhel9/isv/gaussian/G16C02/g16/l1.exe "/local/5761436/Gau-3401492.inp" -scrdir="/local/5761436/"
 Default CPUs for threads: 60-63
 Default is to use a total of   4 processors:
                                4 via shared-memory
                                1 via Linda
 Entering Link 1 = /apps/t4/rhel9/isv/gaussian/G16C02/g16/l1.exe PID=   3401498.
  
 Copyright (c) 1988-2021, Gaussian, Inc.  All Rights Reserved.
  
 This is part of the Gaussian(R) 16 program.  It is based on
 the Gaussian(R) 09 system (copyright 2009, Gaussian, Inc.),
 the Gaussian(R) 03 system (copyright 2003, Gaussian, Inc.),
 the Gaussian(R) 98 system (copyright 1998, Gaussian, Inc.),
 the Gaussian(R) 94 system (copyright 1995, Gaussian, Inc.),
 the Gaussian 92(TM) system (copyright 1992, Gaussian, Inc.),
 the Gaussian 90(TM) system (copyright 1990, Gaussian, Inc.),
 the Gaussian 88(TM) system (copyright 1988, Gaussian, Inc.),
 the Gaussian 86(TM) system (copyright 1986, Carnegie Mellon
 University), and the Gaussian 82(TM) system (copyright 1983,
 Carnegie Mellon University). Gaussian is a federally registered
 trademark of Gaussian, Inc.
  
 This software contains proprietary and confidential information,
 including trade secrets, belonging to Gaussian, Inc.
  
 This software is provided under written license and may be
 used, copied, transmitted, or stored only in accord with that
 written license.
  
 The following legend is applicable only to US Government
 contracts under FAR:
  
                    RESTRICTED RIGHTS LEGEND
  
 Use, reproduction and disclosure by the US Government is
 subject to restrictions as set forth in subparagraphs (a)
 and (c) of the Commercial Computer Software - Restricted
 Rights clause in FAR 52.227-19.
  
 Gaussian, Inc.
 340 Quinnipiac St., Bldg. 40, Wallingford CT 06492
  
  
 ---------------------------------------------------------------
 Warning -- This program may not be used in any manner that
 competes with the business of Gaussian, Inc. or will provide
 assistance to any competitor of Gaussian, Inc.  The licensee
 of this program is prohibited from giving any competitor of
 Gaussian, Inc. access to this program.  By using this program,
 the user acknowledges that Gaussian, Inc. is engaged in the
 business of creating and licensing software in the field of
 computational chemistry and represents and warrants to the
 licensee that it is not a competitor of Gaussian, Inc. and that
 it will not use this program in any manner prohibited above.
 ---------------------------------------------------------------
  

 Cite this work as:
 Gaussian 16, Revision C.02,
 M. J. Frisch, G. W. Trucks, H. B. Schlegel, G. E. Scuseria, 
 M. A. Robb, J. R. Cheeseman, G. Scalmani, V. Barone, 
 G. A. Petersson, H. Nakatsuji, X. Li, M. Caricato, A. V. Marenich, 
 J. Bloino, B. G. Janesko, R. Gomperts, B. Mennucci, H. P. Hratchian, 
 J. V. Ortiz, A. F. Izmaylov, J. L. Sonnenberg, D. Williams-Young, 
 F. Ding, F. Lipparini, F. Egidi, J. Goings, B. Peng, A. Petrone, 
 T. Henderson, D. Ranasinghe, V. G. Zakrzewski, J. Gao, N. Rega, 
 G. Zheng, W. Liang, M. Hada, M. Ehara, K. Toyota, R. Fukuda, 
 J. Hasegawa, M. Ishida, T. Nakajima, Y. Honda, O. Kitao, H. Nakai, 
 T. Vreven, K. Throssell, J. A. Montgomery, Jr., J. E. Peralta, 
 F. Ogliaro, M. J. Bearpark, J. J. Heyd, E. N. Brothers, K. N. Kudin, 
 V. N. Staroverov, T. A. Keith, R. Kobayashi, J. Normand, 
 K. Raghavachari, A. P. Rendell, J. C. Burant, S. S. Iyengar, 
 J. Tomasi, M. Cossi, J. M. Millam, M. Klene, C. Adamo, R. Cammi, 
 J. W. Ochterski, R. L. Martin, K. Morokuma, O. Farkas, 
 J. B. Foresman, and D. J. Fox, Gaussian, Inc., Wallingford CT, 2019.
 
 ******************************************
 Gaussian 16:  ES64L-G16RevC.02  7-Dec-2021
                25-Nov-2025 
 ******************************************
 %mem=4GB
 %chk=sub_18959-31-4.chk
 SetSPE:  set environment variable "OMP_PROC_BIND" = "true"
 SetSPE:  set environment variable "OMP_PLACES" = "{60},{61},{62},{63}"
 ------------------------------------------------------------
 #p opt freq rcam-b3lyp/6-311+g(d,p) scrf=(smd,solvent=water)
 ------------------------------------------------------------
 1/18=20,19=15,26=3,38=1/1,3;
 2/9=110,12=2,17=6,18=5,40=1/2;
 3/5=4,6=6,7=111,11=2,25=1,30=1,70=32201,71=1,72=1,74=-40,116=1/1,2,3;
 4//1;
 5/5=2,38=5,53=1/2;
 6/7=2,8=2,9=2,10=2,28=1/1;
 7//1,2,3,16;
 1/18=20,19=15,26=3/3(2);
 2/9=110/2;
 99//99;
 2/9=110/2;
 3/5=4,6=6,7=111,11=2,25=1,30=1,70=32205,71=1,72=1,74=-40,116=1/1,2,3;
 4/5=5,16=3,69=1/1;
 5/5=2,38=5,53=1/2;
 7//1,2,3,16;
 1/18=20,19=15,26=3/3(-5);
 2/9=110/2;
 6/7=2,8=2,9=2,10=2,19=2,28=1/1;
 99/9=1/99;
 Leave Link    1 at Tue Nov 25 03:43:40 2025, MaxMem=   536870912 cpu:               0.0 elap:               0.0
 (Enter /apps/t4/rhel9/isv/gaussian/G16C02/g16/l101.exe)
 -------
 no comm
 -------
 Symbolic Z-matrix:
 Charge =  0 Multiplicity = 1
 O                    -0.56609   3.50793   0.42972 
 C                    -0.19161   2.53008  -0.17891 
 O                     0.74543   2.57909  -1.1268 
 C                    -0.76983   1.16987   0. 
 C                    -2.17164   1.10337   0.135 
 C                    -2.80217  -0.1384    0.22542 
 F                    -4.15185  -0.20418   0.34033 
 C                    -2.0473   -1.30945   0.18085 
 F                    -2.66057  -2.51633   0.2616 
 C                    -0.65771  -1.24162   0.06954 
 C                     0.        0.        0. 
 C                     1.48879   0.        0. 
 O                     2.1636   -0.78059  -0.63416 
 O                     2.01144   0.91204   0.82097 
 H                     1.0995    3.48256  -1.18285 
 H                    -2.78233   1.9983    0.13853 
 H                    -0.09077  -2.1648    0.06997 
 H                     2.98112   0.87964   0.76238 
 
 ITRead=  0  0  0  0  0  0  0  0  0  0  0  0  0  0  0  0  0  0
 MicOpt= -1 -1 -1 -1 -1 -1 -1 -1 -1 -1 -1 -1 -1 -1 -1 -1 -1 -1
 NAtoms=     18 NQM=       18 NQMF=       0 NMMI=      0 NMMIF=      0
                NMic=       0 NMicF=      0.
                    Isotopes and Nuclear Properties:
 (Nuclear quadrupole moments (NQMom) in fm**2, nuclear magnetic moments (NMagM)
  in nuclear magnetons)

  Atom         1           2           3           4           5           6           7           8           9          10
 IAtWgt=          16          12          16          12          12          12          19          12          19          12
 AtmWgt=  15.9949146  12.0000000  15.9949146  12.0000000  12.0000000  12.0000000  18.9984032  12.0000000  18.9984032  12.0000000
 NucSpn=           0           0           0           0           0           0           1           0           1           0
 AtZEff=  -0.0000000  -0.0000000  -0.0000000  -0.0000000  -0.0000000  -0.0000000  -0.0000000  -0.0000000  -0.0000000  -0.0000000
 NQMom=    0.0000000   0.0000000   0.0000000   0.0000000   0.0000000   0.0000000   0.0000000   0.0000000   0.0000000   0.0000000
 NMagM=    0.0000000   0.0000000   0.0000000   0.0000000   0.0000000   0.0000000   2.6288670   0.0000000   2.6288670   0.0000000
 AtZNuc=   8.0000000   6.0000000   8.0000000   6.0000000   6.0000000   6.0000000   9.0000000   6.0000000   9.0000000   6.0000000

  Atom        11          12          13          14          15          16          17          18
 IAtWgt=          12          12          16          16           1           1           1           1
 AtmWgt=  12.0000000  12.0000000  15.9949146  15.9949146   1.0078250   1.0078250   1.0078250   1.0078250
 NucSpn=           0           0           0           0           1           1           1           1
 AtZEff=  -0.0000000  -0.0000000  -0.0000000  -0.0000000  -0.0000000  -0.0000000  -0.0000000  -0.0000000
 NQMom=    0.0000000   0.0000000   0.0000000   0.0000000   0.0000000   0.0000000   0.0000000   0.0000000
 NMagM=    0.0000000   0.0000000   0.0000000   0.0000000   2.7928460   2.7928460   2.7928460   2.7928460
 AtZNuc=   6.0000000   6.0000000   8.0000000   8.0000000   1.0000000   1.0000000   1.0000000   1.0000000
 Leave Link  101 at Tue Nov 25 03:43:41 2025, MaxMem=   536870912 cpu:               0.1 elap:               0.1
 (Enter /apps/t4/rhel9/isv/gaussian/G16C02/g16/l103.exe)

 GradGradGradGradGradGradGradGradGradGradGradGradGradGradGradGradGradGrad
 Berny optimization.
 Initialization pass.
                           ----------------------------
                           !    Initial Parameters    !
                           ! (Angstroms and Degrees)  !
 --------------------------                            --------------------------
 ! Name  Definition              Value          Derivative Info.                !
 --------------------------------------------------------------------------------
 ! R1    R(1,2)                  1.2111         estimate D2E/DX2                !
 ! R2    R(2,3)                  1.3338         estimate D2E/DX2                !
 ! R3    R(2,4)                  1.4888         estimate D2E/DX2                !
 ! R4    R(3,15)                 0.972          estimate D2E/DX2                !
 ! R5    R(4,5)                  1.4099         estimate D2E/DX2                !
 ! R6    R(4,11)                 1.4004         estimate D2E/DX2                !
 ! R7    R(5,6)                  1.3956         estimate D2E/DX2                !
 ! R8    R(5,16)                 1.0834         estimate D2E/DX2                !
 ! R9    R(6,7)                  1.3562         estimate D2E/DX2                !
 ! R10   R(6,8)                  1.394          estimate D2E/DX2                !
 ! R11   R(8,9)                  1.3562         estimate D2E/DX2                !
 ! R12   R(8,10)                 1.3957         estimate D2E/DX2                !
 ! R13   R(10,11)                1.4068         estimate D2E/DX2                !
 ! R14   R(10,17)                1.0834         estimate D2E/DX2                !
 ! R15   R(11,12)                1.4888         estimate D2E/DX2                !
 ! R16   R(12,13)                1.2111         estimate D2E/DX2                !
 ! R17   R(12,14)                1.3338         estimate D2E/DX2                !
 ! R18   R(14,18)                0.972          estimate D2E/DX2                !
 ! A1    A(1,2,3)              123.004          estimate D2E/DX2                !
 ! A2    A(1,2,4)              123.8604         estimate D2E/DX2                !
 ! A3    A(3,2,4)              113.0686         estimate D2E/DX2                !
 ! A4    A(2,3,15)             109.3325         estimate D2E/DX2                !
 ! A5    A(2,4,5)              116.1528         estimate D2E/DX2                !
 ! A6    A(2,4,11)             123.3471         estimate D2E/DX2                !
 ! A7    A(5,4,11)             120.475          estimate D2E/DX2                !
 ! A8    A(4,5,6)              119.827          estimate D2E/DX2                !
 ! A9    A(4,5,16)             121.4523         estimate D2E/DX2                !
 ! A10   A(6,5,16)             118.6908         estimate D2E/DX2                !
 ! A11   A(5,6,7)              119.8865         estimate D2E/DX2                !
 ! A12   A(5,6,8)              120.0496         estimate D2E/DX2                !
 ! A13   A(7,6,8)              120.059          estimate D2E/DX2                !
 ! A14   A(6,8,9)              120.0545         estimate D2E/DX2                !
 ! A15   A(6,8,10)             120.058          estimate D2E/DX2                !
 ! A16   A(9,8,10)             119.8829         estimate D2E/DX2                !
 ! A17   A(8,10,11)            120.8184         estimate D2E/DX2                !
 ! A18   A(8,10,17)            118.6578         estimate D2E/DX2                !
 ! A19   A(11,10,17)           120.4946         estimate D2E/DX2                !
 ! A20   A(4,11,10)            118.7039         estimate D2E/DX2                !
 ! A21   A(4,11,12)            123.3468         estimate D2E/DX2                !
 ! A22   A(10,11,12)           117.8738         estimate D2E/DX2                !
 ! A23   A(11,12,13)           123.8603         estimate D2E/DX2                !
 ! A24   A(11,12,14)           113.0701         estimate D2E/DX2                !
 ! A25   A(13,12,14)           123.0027         estimate D2E/DX2                !
 ! A26   A(12,14,18)           109.3314         estimate D2E/DX2                !
 ! D1    D(1,2,3,15)             4.2378         estimate D2E/DX2                !
 ! D2    D(4,2,3,15)          -178.6377         estimate D2E/DX2                !
 ! D3    D(1,2,4,5)             40.9411         estimate D2E/DX2                !
 ! D4    D(1,2,4,11)          -140.8752         estimate D2E/DX2                !
 ! D5    D(3,2,4,5)           -136.1549         estimate D2E/DX2                !
 ! D6    D(3,2,4,11)            42.0288         estimate D2E/DX2                !
 ! D7    D(2,4,5,6)            176.1329         estimate D2E/DX2                !
 ! D8    D(2,4,5,16)            -1.8524         estimate D2E/DX2                !
 ! D9    D(11,4,5,6)            -2.1066         estimate D2E/DX2                !
 ! D10   D(11,4,5,16)          179.9081         estimate D2E/DX2                !
 ! D11   D(2,4,11,10)         -174.96           estimate D2E/DX2                !
 ! D12   D(2,4,11,12)            8.2709         estimate D2E/DX2                !
 ! D13   D(5,4,11,10)            3.1482         estimate D2E/DX2                !
 ! D14   D(5,4,11,12)         -173.6209         estimate D2E/DX2                !
 ! D15   D(4,5,6,7)           -179.2667         estimate D2E/DX2                !
 ! D16   D(4,5,6,8)             -0.0681         estimate D2E/DX2                !
 ! D17   D(16,5,6,7)            -1.226          estimate D2E/DX2                !
 ! D18   D(16,5,6,8)           177.9726         estimate D2E/DX2                !
 ! D19   D(5,6,8,9)           -179.6514         estimate D2E/DX2                !
 ! D20   D(5,6,8,10)             1.1335         estimate D2E/DX2                !
 ! D21   D(7,6,8,9)             -0.4542         estimate D2E/DX2                !
 ! D22   D(7,6,8,10)          -179.6693         estimate D2E/DX2                !
 ! D23   D(6,8,10,11)           -0.0446         estimate D2E/DX2                !
 ! D24   D(6,8,10,17)          177.9976         estimate D2E/DX2                !
 ! D25   D(9,8,10,11)         -179.261          estimate D2E/DX2                !
 ! D26   D(9,8,10,17)           -1.2188         estimate D2E/DX2                !
 ! D27   D(8,10,11,4)           -2.085          estimate D2E/DX2                !
 ! D28   D(8,10,11,12)         174.862          estimate D2E/DX2                !
 ! D29   D(17,10,11,4)         179.9089         estimate D2E/DX2                !
 ! D30   D(17,10,11,12)         -3.1442         estimate D2E/DX2                !
 ! D31   D(4,11,12,13)        -140.9093         estimate D2E/DX2                !
 ! D32   D(4,11,12,14)          41.9917         estimate D2E/DX2                !
 ! D33   D(10,11,12,13)         42.2965         estimate D2E/DX2                !
 ! D34   D(10,11,12,14)       -134.8025         estimate D2E/DX2                !
 ! D35   D(11,12,14,18)       -178.6339         estimate D2E/DX2                !
 ! D36   D(13,12,14,18)          4.2385         estimate D2E/DX2                !
 --------------------------------------------------------------------------------
 Trust Radius=3.00D-01 FncErr=1.00D-07 GrdErr=1.00D-06 EigMax=2.50D+02 EigMin=1.00D-04
 Number of steps in this run=     90 maximum allowed number of steps=    108.
 GradGradGradGradGradGradGradGradGradGradGradGradGradGradGradGradGradGrad

 Leave Link  103 at Tue Nov 25 03:43:41 2025, MaxMem=   536870912 cpu:               0.0 elap:               0.1
 (Enter /apps/t4/rhel9/isv/gaussian/G16C02/g16/l202.exe)
                          Input orientation:                          
 ---------------------------------------------------------------------
 Center     Atomic      Atomic             Coordinates (Angstroms)
 Number     Number       Type             X           Y           Z
 ---------------------------------------------------------------------
      1          8           0       -0.566088    3.507927    0.429725
      2          6           0       -0.191608    2.530078   -0.178906
      3          8           0        0.745428    2.579090   -1.126805
      4          6           0       -0.769832    1.169874    0.000000
      5          6           0       -2.171637    1.103374    0.135004
      6          6           0       -2.802165   -0.138399    0.225422
      7          9           0       -4.151847   -0.204184    0.340330
      8          6           0       -2.047300   -1.309449    0.180852
      9          9           0       -2.660568   -2.516330    0.261597
     10          6           0       -0.657707   -1.241620    0.069543
     11          6           0        0.000000    0.000000    0.000000
     12          6           0        1.488787    0.000000    0.000000
     13          8           0        2.163596   -0.780593   -0.634161
     14          8           0        2.011437    0.912041    0.820966
     15          1           0        1.099497    3.482561   -1.182846
     16          1           0       -2.782326    1.998297    0.138531
     17          1           0       -0.090773   -2.164802    0.069969
     18          1           0        2.981118    0.879640    0.762380
 ---------------------------------------------------------------------
                    Distance matrix (angstroms):
                    1          2          3          4          5
     1  O    0.000000
     2  C    1.211138   0.000000
     3  O    2.237318   1.333773   0.000000
     4  C    2.385931   1.488793   2.356182   0.000000
     5  C    2.906290   2.460598   3.504165   1.409860   0.000000
     6  C    4.282228   3.754898   4.668906   2.427503   1.395615
     7  F    5.161921   4.840381   5.820859   3.666317   2.381826
     8  C    5.046091   4.279601   4.962865   2.794937   2.416460
     9  F    6.380187   5.635250   6.284248   4.151074   3.654769
    10  C    4.764066   3.808501   4.242389   2.415101   2.792001
    11  C    3.579200   2.543623   2.911539   1.400446   2.439605
    12  C    4.088120   3.042537   2.911010   2.543613   3.825489
    13  O    5.193692   4.088373   3.679860   3.579314   4.789071
    14  O    3.679039   2.910532   2.859308   2.911344   4.243261
    15  H    2.318448   1.892636   0.971990   3.200318   4.254125
    16  H    2.697311   2.663715   3.792551   2.180735   1.083439
    17  H    5.703964   4.702553   4.963468   3.403834   3.874945
    18  H    4.427326   3.698128   3.384591   3.838631   5.195627
                    6          7          8          9         10
     6  C    0.000000
     7  F    1.356161   0.000000
     8  C    1.393975   2.382470   0.000000
     9  F    2.382418   2.752478   1.356163   0.000000
    10  C    2.416629   3.654944   1.395693   2.381852   0.000000
    11  C    2.814623   4.170773   2.436965   3.671372   1.406782
    12  C    4.299097   5.654579   3.775086   4.859783   2.480704
    13  O    5.080363   6.416128   4.321525   5.204586   2.944061
    14  O    4.962748   6.281961   4.670986   5.821876   3.511014
    15  H    5.506136   6.594601   5.892823   7.225731   5.193663
    16  H    2.138554   2.601390   3.388693   4.517945   3.875026
    17  H    3.388528   4.517681   2.138205   2.600795   1.083365
    18  H    5.896702   7.227170   5.515004   6.603939   4.268585
                   11         12         13         14         15
    11  C    0.000000
    12  C    1.488787   0.000000
    13  O    2.385924   1.211138   0.000000
    14  O    2.356201   1.333779   2.237311   0.000000
    15  H    3.838782   3.698500   4.428075   3.384445   0.000000
    16  H    3.428370   4.717498   5.725507   4.962442   4.360921
    17  H    2.167834   2.680723   2.737520   3.801348   5.905844
    18  H    3.200321   1.892628   2.318415   0.971989   3.754943
                   16         17         18
    16  H    0.000000
    17  H    4.957878   0.000000
    18  H    5.904055   4.380020   0.000000
 Stoichiometry    C8H4F2O4
 Framework group  C1[X(C8H4F2O4)]
 Deg. of freedom    48
 Full point group                 C1      NOp   1
 Largest Abelian subgroup         C1      NOp   1
 Largest concise Abelian subgroup C1      NOp   1
                         Standard orientation:                         
 ---------------------------------------------------------------------
 Center     Atomic      Atomic             Coordinates (Angstroms)
 Number     Number       Type             X           Y           Z
 ---------------------------------------------------------------------
      1          8           0        1.720160    2.555310    0.504190
      2          6           0        1.556597    1.523275   -0.108187
      3          8           0        2.444769    1.048958   -0.982901
      4          6           0        0.325094    0.691535   -0.018112
      5          6           0       -0.897609    1.392827    0.011804
      6          6           0       -2.102196    0.688054    0.013864
      7          9           0       -3.279178    1.361624    0.027580
      8          6           0       -2.095580   -0.705606   -0.015032
      9          9           0       -3.266135   -1.390408   -0.020172
     10          6           0       -0.884299   -1.398936   -0.022176
     11          6           0        0.341346   -0.708717   -0.001449
     12          6           0        1.590468   -1.511432    0.107306
     13          8           0        1.787091   -2.539563   -0.501908
     14          8           0        2.454387   -1.016203    0.994638
     15          1           0        3.232578    1.618274   -0.982335
     16          1           0       -0.928602    2.475768    0.000982
     17          1           0       -0.905541   -2.482040   -0.011566
     18          1           0        3.255203   -1.566955    1.005981
 ---------------------------------------------------------------------
 Rotational constants (GHZ):           1.0142246           0.5330194           0.3707517
 Leave Link  202 at Tue Nov 25 03:43:41 2025, MaxMem=   536870912 cpu:               0.0 elap:               0.0
 (Enter /apps/t4/rhel9/isv/gaussian/G16C02/g16/l301.exe)
 Standard basis: 6-311+G(d,p) (5D, 7F)
 Ernie: Thresh=  0.10000D-02 Tol=  0.10000D-05 Strict=F.
 There are   346 symmetry adapted cartesian basis functions of A   symmetry.
 There are   332 symmetry adapted basis functions of A   symmetry.
   332 basis functions,   536 primitive gaussians,   346 cartesian basis functions
    51 alpha electrons       51 beta electrons
       nuclear repulsion energy       882.6662788183 Hartrees.
 IExCor=20419 DFT=T Ex+Corr=CAM-B3LYP ExCW=0 ScaHFX=  1.000000
 ScaDFX=  1.000000  1.000000  1.000000  0.810000 ScalE2=  1.000000  1.000000
 IRadAn=      5 IRanWt=     -1 IRanGd=            0 ICorTp=0 IEmpDi=  4
 HFx  wShort=  0.000000 wLong=  0.330000 cFull=  0.190000 cShort=  0.000000 cLong=  0.460000
 DFx  wShort=  0.000000 wLong=  0.330000 cFull=  0.190000 cShort=  0.000000 cLong=  0.460000
 NAtoms=   18 NActive=   18 NUniq=   18 SFac= 1.00D+00 NAtFMM=   60 NAOKFM=F Big=F
 Integral buffers will be    131072 words long.
 Raffenetti 2 integral format.
 Two-electron integral symmetry is turned on.
 ------------------------------------------------------------------------------
 Polarizable Continuum Model (PCM)
 =================================
 Model                : PCM.
 Atomic radii         : SMD-Coulomb.
 Polarization charges : Total charges.
 Charge compensation  : None.
 Solution method      : On-the-fly selection.
 Cavity type          : VdW (van der Waals Surface) (Alpha=1.000).
 Cavity algorithm     : GePol (No added spheres)
                        Default sphere list used, NSphG=   18.
                        Lebedev-Laikov grids with approx.  5.0 points / Ang**2.
                        Smoothing algorithm: York/Karplus (Gamma=1.0000).
                        Polarization charges: spherical gaussians, with
                                              point-specific exponents (IZeta= 3).
                        Self-potential: point-specific (ISelfS= 7).
                        Self-field    : sphere-specific E.n sum rule (ISelfD= 2).
 1st derivatives      : Analytical E(r).r(x)/FMM algorithm (CHGder, D1EAlg=3).
                        Cavity 1st derivative terms included.
 Solvent              : Water, Eps=  78.355300 Eps(inf)=   1.777849
 ------------------------------------------------------------------------------
 Spheres list:
 ISph  on   Nord     Re0    Alpha      Xe            Ye            Ze
    1   O      1    1.5200  1.000      1.720160      2.555310      0.504190
    2   C      2    1.8500  1.000      1.556597      1.523275     -0.108187
    3   O      3    1.5200  1.000      2.444769      1.048958     -0.982901
    4   C      4    1.8500  1.000      0.325094      0.691535     -0.018112
    5   C      5    1.8500  1.000     -0.897609      1.392827      0.011804
    6   C      6    1.8500  1.000     -2.102196      0.688054      0.013864
    7   F      7    1.7300  1.000     -3.279178      1.361624      0.027580
    8   C      8    1.8500  1.000     -2.095580     -0.705606     -0.015032
    9   F      9    1.7300  1.000     -3.266135     -1.390408     -0.020172
   10   C     10    1.8500  1.000     -0.884299     -1.398936     -0.022176
   11   C     11    1.8500  1.000      0.341346     -0.708717     -0.001449
   12   C     12    1.8500  1.000      1.590468     -1.511432      0.107306
   13   O     13    1.5200  1.000      1.787091     -2.539563     -0.501908
   14   O     14    1.5200  1.000      2.454387     -1.016203      0.994638
   15   H     15    1.2000  1.000      3.232578      1.618274     -0.982335
   16   H     16    1.2000  1.000     -0.928602      2.475768      0.000982
   17   H     17    1.2000  1.000     -0.905541     -2.482040     -0.011566
   18   H     18    1.2000  1.000      3.255203     -1.566955      1.005981
 ------------------------------------------------------------------------------
 GePol: Number of generator spheres                  =      18
 GePol: Total number of spheres                      =      18
 GePol: Number of exposed spheres                    =      18 (100.00%)
 GePol: Number of points                             =    1487
 GePol: Average weight of points                     =       0.13
 GePol: Minimum weight of points                     =   0.11D-06
 GePol: Maximum weight of points                     =    0.21991
 GePol: Number of points with low weight             =      80
 GePol: Fraction of low-weight points (<1% of avg)   =       5.38%
 GePol: Cavity surface area                          =    192.826 Ang**2
 GePol: Cavity volume                                =    166.547 Ang**3
 ------------------------------------------------------------------------------
 Atomic radii for non-electrostatic terms: SMD-CDS.
 ------------------------------------------------------------------------------
 PCM non-electrostatic energy =         0.0126067474 Hartrees.
 Nuclear repulsion after PCM non-electrostatic terms =      882.6788855657 Hartrees.
 Leave Link  301 at Tue Nov 25 03:43:41 2025, MaxMem=   536870912 cpu:               0.1 elap:               0.1
 (Enter /apps/t4/rhel9/isv/gaussian/G16C02/g16/l302.exe)
 NPDir=0 NMtPBC=     1 NCelOv=     1 NCel=       1 NClECP=     1 NCelD=      1
         NCelK=      1 NCelE2=     1 NClLst=     1 CellRange=     0.0.
 One-electron integrals computed using PRISM.
 One-electron integral symmetry used in STVInt
 NBasis=   332 RedAO= T EigKep=  2.37D-06  NBF=   332
 NBsUse=   331 1.00D-06 EigRej=  8.90D-07 NBFU=   331
 Precomputing XC quadrature grid using
 IXCGrd= 4 IRadAn=           5 IRanWt=          -1 IRanGd=           0 AccXCQ= 0.00D+00.
 Generated NRdTot=       0 NPtTot=           0 NUsed=           0 NTot=          32
 NSgBfM=   345   345   345   345   345 MxSgAt=    18 MxSgA2=    18.
 Leave Link  302 at Tue Nov 25 03:43:42 2025, MaxMem=   536870912 cpu:               0.5 elap:               0.3
 (Enter /apps/t4/rhel9/isv/gaussian/G16C02/g16/l303.exe)
 DipDrv:  MaxL=1.
 Leave Link  303 at Tue Nov 25 03:43:42 2025, MaxMem=   536870912 cpu:               0.1 elap:               0.1
 (Enter /apps/t4/rhel9/isv/gaussian/G16C02/g16/l401.exe)
 ExpMin= 4.38D-02 ExpMax= 1.14D+04 ExpMxC= 1.72D+03 IAcc=3 IRadAn=         5 AccDes= 0.00D+00
 Harris functional with IExCor=20419 and IRadAn=       5 diagonalized for initial guess.
 HarFok:  IExCor=20419 AccDes= 0.00D+00 IRadAn=         5 IDoV= 1 UseB2=F ITyADJ=14
 ICtDFT=  3500011 ScaDFX=  1.000000  1.000000  1.000000  1.000000
 FoFCou: FMM=F IPFlag=           0 FMFlag=      100000 FMFlg1=           0
         NFxFlg=           0 DoJE=T BraDBF=F KetDBF=T FulRan=T
         wScrn=  0.000000 ICntrl=       500 IOpCl=  0 I1Cent=   200000004 NGrid=           0
         NMat0=    1 NMatS0=      1 NMatT0=    0 NMatD0=    1 NMtDS0=    0 NMtDT0=    0
 Petite list used in FoFCou.
 Harris En= -781.131423346603    
 JPrj=0 DoOrth=F DoCkMO=F.
 Leave Link  401 at Tue Nov 25 03:43:43 2025, MaxMem=   536870912 cpu:               3.5 elap:               1.0
 (Enter /apps/t4/rhel9/isv/gaussian/G16C02/g16/l502.exe)
 Integral symmetry usage will be decided dynamically.
 Closed shell SCF:
 Using DIIS extrapolation, IDIIS=  1040.
 NGot=   536870912 LenX=   536625794 LenY=   536505637
 Requested convergence on RMS density matrix=1.00D-08 within 128 cycles.
 Requested convergence on MAX density matrix=1.00D-06.
 Requested convergence on             energy=1.00D-06.
 No special actions if energy rises.
 Fock matrices will be formed incrementally for  20 cycles.

 Cycle   1  Pass 1  IDiag  1:
 FoFJK:  IHMeth= 1 ICntrl=       0 DoSepK=T KAlg= 0 I1Cent=           0 FoldK=F
 IRaf=         1 NMat=       1 IRICut=       1 DoRegI=T DoRafI=F ISym2E= 0 IDoP0=0 IntGTp=1.
 FoFCou: FMM=F IPFlag=           0 FMFlag=      100000 FMFlg1=           0
         NFxFlg=           0 DoJE=T BraDBF=F KetDBF=F FulRan=T
         wScrn=  0.000000 ICntrl=       500 IOpCl=  0 I1Cent=           0 NGrid=           0
         NMat0=    1 NMatS0=      1 NMatT0=    0 NMatD0=    1 NMtDS0=    0 NMtDT0=    0
 Symmetry not used in FoFCou.
 Inv3:  Mode=1 IEnd=     6633507.
 Iteration    1 A*A^-1 deviation from unit magnitude is 3.77D-15 for    550.
 Iteration    1 A*A^-1 deviation from orthogonality  is 2.61D-15 for    819    478.
 Iteration    1 A^-1*A deviation from unit magnitude is 2.78D-15 for    365.
 Iteration    1 A^-1*A deviation from orthogonality  is 1.41D-14 for   1440   1386.
 E= -807.456629683450    
 DIIS: error= 8.07D-02 at cycle   1 NSaved=   1.
 NSaved= 1 IEnMin= 1 EnMin= -807.456629683450     IErMin= 1 ErrMin= 8.07D-02
 ErrMax= 8.07D-02  0.00D+00 EMaxC= 1.00D-01 BMatC= 1.53D+00 BMatP= 1.53D+00
 IDIUse=3 WtCom= 1.93D-01 WtEn= 8.07D-01
 Coeff-Com:  0.100D+01
 Coeff-En:   0.100D+01
 Coeff:      0.100D+01
 Gap=     0.364 Goal=   None    Shift=    0.000
 GapD=    0.364 DampG=1.000 DampE=0.500 DampFc=0.5000 IDamp=-1.
 Damping current iteration by 5.00D-01
 RMSDP=1.68D-02 MaxDP=1.19D+00              OVMax= 1.83D-01

 Cycle   2  Pass 1  IDiag  1:
 RMSU=  6.16D-03    CP:  8.73D-01
 E= -807.624499494884     Delta-E=       -0.167869811434 Rises=F Damp=T
 DIIS: error= 3.41D-02 at cycle   2 NSaved=   2.
 NSaved= 2 IEnMin= 2 EnMin= -807.624499494884     IErMin= 2 ErrMin= 3.41D-02
 ErrMax= 3.41D-02  0.00D+00 EMaxC= 1.00D-01 BMatC= 2.51D-01 BMatP= 1.53D+00
 IDIUse=3 WtCom= 6.59D-01 WtEn= 3.41D-01
 Coeff-Com: -0.252D+00 0.125D+01
 Coeff-En:   0.218D-01 0.978D+00
 Coeff:     -0.159D+00 0.116D+01
 Gap=     0.324 Goal=   None    Shift=    0.000
 RMSDP=6.85D-03 MaxDP=4.85D-01 DE=-1.68D-01 OVMax= 1.18D-01

 Cycle   3  Pass 1  IDiag  1:
 RMSU=  3.60D-03    CP:  7.77D-01  1.63D+00
 E= -807.781727409428     Delta-E=       -0.157227914544 Rises=F Damp=F
 DIIS: error= 2.13D-02 at cycle   3 NSaved=   3.
 NSaved= 3 IEnMin= 3 EnMin= -807.781727409428     IErMin= 3 ErrMin= 2.13D-02
 ErrMax= 2.13D-02  0.00D+00 EMaxC= 1.00D-01 BMatC= 6.17D-02 BMatP= 2.51D-01
 IDIUse=3 WtCom= 7.87D-01 WtEn= 2.13D-01
 Coeff-Com: -0.209D+00 0.483D+00 0.726D+00
 Coeff-En:   0.000D+00 0.000D+00 0.100D+01
 Coeff:     -0.164D+00 0.380D+00 0.784D+00
 Gap=     0.308 Goal=   None    Shift=    0.000
 RMSDP=3.30D-03 MaxDP=2.04D-01 DE=-1.57D-01 OVMax= 4.58D-02

 Cycle   4  Pass 1  IDiag  1:
 RMSU=  1.82D-03    CP:  7.27D-01  1.89D+00  8.68D-01
 E= -807.812809041069     Delta-E=       -0.031081631641 Rises=F Damp=F
 DIIS: error= 9.47D-03 at cycle   4 NSaved=   4.
 NSaved= 4 IEnMin= 4 EnMin= -807.812809041069     IErMin= 4 ErrMin= 9.47D-03
 ErrMax= 9.47D-03  0.00D+00 EMaxC= 1.00D-01 BMatC= 9.14D-03 BMatP= 6.17D-02
 IDIUse=3 WtCom= 9.05D-01 WtEn= 9.47D-02
 Coeff-Com: -0.596D-01 0.136D+00 0.392D+00 0.532D+00
 Coeff-En:   0.000D+00 0.000D+00 0.964D-01 0.904D+00
 Coeff:     -0.540D-01 0.123D+00 0.364D+00 0.567D+00
 Gap=     0.301 Goal=   None    Shift=    0.000
 RMSDP=6.31D-04 MaxDP=6.02D-02 DE=-3.11D-02 OVMax= 1.16D-02

 Cycle   5  Pass 1  IDiag  1:
 RMSU=  3.49D-04    CP:  7.34D-01  1.87D+00  9.68D-01  8.79D-01
 E= -807.818129794219     Delta-E=       -0.005320753150 Rises=F Damp=F
 DIIS: error= 8.84D-04 at cycle   5 NSaved=   5.
 NSaved= 5 IEnMin= 5 EnMin= -807.818129794219     IErMin= 5 ErrMin= 8.84D-04
 ErrMax= 8.84D-04  0.00D+00 EMaxC= 1.00D-01 BMatC= 1.72D-04 BMatP= 9.14D-03
 IDIUse=3 WtCom= 9.91D-01 WtEn= 8.84D-03
 Coeff-Com: -0.819D-02 0.180D-01 0.107D+00 0.255D+00 0.629D+00
 Coeff-En:   0.000D+00 0.000D+00 0.000D+00 0.000D+00 0.100D+01
 Coeff:     -0.812D-02 0.178D-01 0.106D+00 0.253D+00 0.632D+00
 Gap=     0.301 Goal=   None    Shift=    0.000
 RMSDP=2.52D-04 MaxDP=1.34D-02 DE=-5.32D-03 OVMax= 3.37D-03

 Cycle   6  Pass 1  IDiag  1:
 RMSU=  8.48D-05    CP:  7.30D-01  1.88D+00  9.86D-01  9.48D-01  9.38D-01
 E= -807.818262980216     Delta-E=       -0.000133185997 Rises=F Damp=F
 DIIS: error= 2.43D-04 at cycle   6 NSaved=   6.
 NSaved= 6 IEnMin= 6 EnMin= -807.818262980216     IErMin= 6 ErrMin= 2.43D-04
 ErrMax= 2.43D-04  0.00D+00 EMaxC= 1.00D-01 BMatC= 1.80D-05 BMatP= 1.72D-04
 IDIUse=3 WtCom= 9.98D-01 WtEn= 2.43D-03
 Coeff-Com:  0.518D-02-0.118D-01-0.118D-01 0.268D-01 0.280D+00 0.712D+00
 Coeff-En:   0.000D+00 0.000D+00 0.000D+00 0.000D+00 0.000D+00 0.100D+01
 Coeff:      0.516D-02-0.118D-01-0.118D-01 0.267D-01 0.279D+00 0.712D+00
 Gap=     0.301 Goal=   None    Shift=    0.000
 RMSDP=1.37D-04 MaxDP=6.27D-03 DE=-1.33D-04 OVMax= 2.16D-03

 Cycle   7  Pass 1  IDiag  1:
 RMSU=  5.98D-05    CP:  7.27D-01  1.88D+00  9.96D-01  9.78D-01  9.35D-01
                    CP:  1.12D+00
 E= -807.818281183878     Delta-E=       -0.000018203662 Rises=F Damp=F
 DIIS: error= 1.03D-04 at cycle   7 NSaved=   7.
 NSaved= 7 IEnMin= 7 EnMin= -807.818281183878     IErMin= 7 ErrMin= 1.03D-04
 ErrMax= 1.03D-04  0.00D+00 EMaxC= 1.00D-01 BMatC= 3.29D-06 BMatP= 1.80D-05
 IDIUse=3 WtCom= 9.99D-01 WtEn= 1.03D-03
 Coeff-Com:  0.399D-02-0.892D-02-0.217D-01-0.217D-01 0.511D-01 0.354D+00
 Coeff-Com:  0.643D+00
 Coeff-En:   0.000D+00 0.000D+00 0.000D+00 0.000D+00 0.000D+00 0.000D+00
 Coeff-En:   0.100D+01
 Coeff:      0.398D-02-0.891D-02-0.217D-01-0.217D-01 0.511D-01 0.354D+00
 Coeff:      0.644D+00
 Gap=     0.301 Goal=   None    Shift=    0.000
 RMSDP=2.48D-05 MaxDP=1.25D-03 DE=-1.82D-05 OVMax= 1.10D-03

 Cycle   8  Pass 1  IDiag  1:
 RMSU=  1.30D-05    CP:  7.27D-01  1.88D+00  9.97D-01  9.85D-01  9.47D-01
                    CP:  1.15D+00  1.05D+00
 E= -807.818284991832     Delta-E=       -0.000003807953 Rises=F Damp=F
 DIIS: error= 3.39D-05 at cycle   8 NSaved=   8.
 NSaved= 8 IEnMin= 8 EnMin= -807.818284991832     IErMin= 8 ErrMin= 3.39D-05
 ErrMax= 3.39D-05  0.00D+00 EMaxC= 1.00D-01 BMatC= 2.96D-07 BMatP= 3.29D-06
 IDIUse=1 WtCom= 1.00D+00 WtEn= 0.00D+00
 Coeff-Com: -0.101D-03 0.249D-03-0.195D-02-0.697D-02-0.318D-01-0.207D-01
 Coeff-Com:  0.197D+00 0.864D+00
 Coeff:     -0.101D-03 0.249D-03-0.195D-02-0.697D-02-0.318D-01-0.207D-01
 Coeff:      0.197D+00 0.864D+00
 Gap=     0.301 Goal=   None    Shift=    0.000
 RMSDP=9.79D-06 MaxDP=3.69D-04 DE=-3.81D-06 OVMax= 4.80D-04

 Cycle   9  Pass 1  IDiag  1:
 RMSU=  5.95D-06    CP:  7.27D-01  1.88D+00  9.97D-01  9.87D-01  9.42D-01
                    CP:  1.20D+00  1.11D+00  1.21D+00
 E= -807.818285613111     Delta-E=       -0.000000621279 Rises=F Damp=F
 DIIS: error= 1.82D-05 at cycle   9 NSaved=   9.
 NSaved= 9 IEnMin= 9 EnMin= -807.818285613111     IErMin= 9 ErrMin= 1.82D-05
 ErrMax= 1.82D-05  0.00D+00 EMaxC= 1.00D-01 BMatC= 3.17D-08 BMatP= 2.96D-07
 IDIUse=1 WtCom= 1.00D+00 WtEn= 0.00D+00
 Coeff-Com: -0.483D-03 0.109D-02 0.219D-02 0.775D-03-0.169D-01-0.535D-01
 Coeff-Com: -0.139D-01 0.224D+00 0.857D+00
 Coeff:     -0.483D-03 0.109D-02 0.219D-02 0.775D-03-0.169D-01-0.535D-01
 Coeff:     -0.139D-01 0.224D+00 0.857D+00
 Gap=     0.301 Goal=   None    Shift=    0.000
 RMSDP=7.14D-06 MaxDP=7.07D-04 DE=-6.21D-07 OVMax= 3.00D-04

 Cycle  10  Pass 1  IDiag  1:
 RMSU=  2.02D-06    CP:  7.27D-01  1.88D+00  9.97D-01  9.85D-01  9.34D-01
                    CP:  1.20D+00  1.17D+00  1.35D+00  1.11D+00
 E= -807.818285719660     Delta-E=       -0.000000106549 Rises=F Damp=F
 DIIS: error= 6.92D-06 at cycle  10 NSaved=  10.
 NSaved=10 IEnMin=10 EnMin= -807.818285719660     IErMin=10 ErrMin= 6.92D-06
 ErrMax= 6.92D-06  0.00D+00 EMaxC= 1.00D-01 BMatC= 8.86D-09 BMatP= 3.17D-08
 IDIUse=1 WtCom= 1.00D+00 WtEn= 0.00D+00
 Coeff-Com: -0.146D-03 0.329D-03 0.114D-02 0.144D-02-0.169D-02-0.198D-01
 Coeff-Com: -0.414D-01-0.671D-01 0.364D+00 0.763D+00
 Coeff:     -0.146D-03 0.329D-03 0.114D-02 0.144D-02-0.169D-02-0.198D-01
 Coeff:     -0.414D-01-0.671D-01 0.364D+00 0.763D+00
 Gap=     0.301 Goal=   None    Shift=    0.000
 RMSDP=1.91D-06 MaxDP=1.06D-04 DE=-1.07D-07 OVMax= 1.27D-04

 Cycle  11  Pass 1  IDiag  1:
 RMSU=  7.91D-07    CP:  7.27D-01  1.88D+00  9.97D-01  9.85D-01  9.33D-01
                    CP:  1.20D+00  1.18D+00  1.41D+00  1.28D+00  9.83D-01
 E= -807.818285741796     Delta-E=       -0.000000022136 Rises=F Damp=F
 DIIS: error= 1.53D-06 at cycle  11 NSaved=  11.
 NSaved=11 IEnMin=11 EnMin= -807.818285741796     IErMin=11 ErrMin= 1.53D-06
 ErrMax= 1.53D-06  0.00D+00 EMaxC= 1.00D-01 BMatC= 9.99D-10 BMatP= 8.86D-09
 IDIUse=1 WtCom= 1.00D+00 WtEn= 0.00D+00
 Coeff-Com:  0.264D-04-0.607D-04 0.363D-04 0.381D-03 0.218D-02 0.163D-02
 Coeff-Com: -0.115D-01-0.505D-01-0.260D-01 0.253D+00 0.831D+00
 Coeff:      0.264D-04-0.607D-04 0.363D-04 0.381D-03 0.218D-02 0.163D-02
 Coeff:     -0.115D-01-0.505D-01-0.260D-01 0.253D+00 0.831D+00
 Gap=     0.301 Goal=   None    Shift=    0.000
 RMSDP=6.63D-07 MaxDP=5.67D-05 DE=-2.21D-08 OVMax= 4.10D-05

 Cycle  12  Pass 1  IDiag  1:
 RMSU=  2.70D-07    CP:  7.27D-01  1.88D+00  9.97D-01  9.85D-01  9.32D-01
                    CP:  1.20D+00  1.18D+00  1.43D+00  1.32D+00  1.09D+00
                    CP:  1.28D+00
 E= -807.818285744258     Delta-E=       -0.000000002461 Rises=F Damp=F
 DIIS: error= 5.39D-07 at cycle  12 NSaved=  12.
 NSaved=12 IEnMin=12 EnMin= -807.818285744258     IErMin=12 ErrMin= 5.39D-07
 ErrMax= 5.39D-07  0.00D+00 EMaxC= 1.00D-01 BMatC= 1.99D-10 BMatP= 9.99D-10
 IDIUse=1 WtCom= 1.00D+00 WtEn= 0.00D+00
 Coeff-Com:  0.212D-04-0.481D-04-0.121D-03-0.363D-04 0.104D-02 0.320D-02
 Coeff-Com:  0.138D-02-0.519D-02-0.749D-01-0.381D-02 0.339D+00 0.739D+00
 Coeff:      0.212D-04-0.481D-04-0.121D-03-0.363D-04 0.104D-02 0.320D-02
 Coeff:      0.138D-02-0.519D-02-0.749D-01-0.381D-02 0.339D+00 0.739D+00
 Gap=     0.301 Goal=   None    Shift=    0.000
 RMSDP=2.28D-07 MaxDP=2.49D-05 DE=-2.46D-09 OVMax= 1.19D-05

 Cycle  13  Pass 1  IDiag  1:
 RMSU=  1.32D-07    CP:  7.27D-01  1.88D+00  9.97D-01  9.85D-01  9.32D-01
                    CP:  1.20D+00  1.18D+00  1.43D+00  1.33D+00  1.11D+00
                    CP:  1.42D+00  1.16D+00
 E= -807.818285744565     Delta-E=       -0.000000000308 Rises=F Damp=F
 DIIS: error= 2.21D-07 at cycle  13 NSaved=  13.
 NSaved=13 IEnMin=13 EnMin= -807.818285744565     IErMin=13 ErrMin= 2.21D-07
 ErrMax= 2.21D-07  0.00D+00 EMaxC= 1.00D-01 BMatC= 1.33D-11 BMatP= 1.99D-10
 IDIUse=1 WtCom= 1.00D+00 WtEn= 0.00D+00
 Coeff-Com: -0.719D-06 0.136D-05-0.248D-04-0.446D-04-0.380D-05 0.586D-03
 Coeff-Com:  0.137D-02 0.537D-02-0.169D-01-0.235D-01-0.240D-01 0.146D+00
 Coeff-Com:  0.911D+00
 Coeff:     -0.719D-06 0.136D-05-0.248D-04-0.446D-04-0.380D-05 0.586D-03
 Coeff:      0.137D-02 0.537D-02-0.169D-01-0.235D-01-0.240D-01 0.146D+00
 Coeff:      0.911D+00
 Gap=     0.301 Goal=   None    Shift=    0.000
 RMSDP=1.10D-07 MaxDP=1.44D-05 DE=-3.08D-10 OVMax= 5.05D-06

 Cycle  14  Pass 1  IDiag  1:
 RMSU=  3.84D-08    CP:  7.27D-01  1.88D+00  9.97D-01  9.85D-01  9.32D-01
                    CP:  1.20D+00  1.18D+00  1.43D+00  1.32D+00  1.12D+00
                    CP:  1.46D+00  1.27D+00  1.28D+00
 E= -807.818285744595     Delta-E=       -0.000000000029 Rises=F Damp=F
 DIIS: error= 7.56D-08 at cycle  14 NSaved=  14.
 NSaved=14 IEnMin=14 EnMin= -807.818285744595     IErMin=14 ErrMin= 7.56D-08
 ErrMax= 7.56D-08  0.00D+00 EMaxC= 1.00D-01 BMatC= 3.06D-12 BMatP= 1.33D-11
 IDIUse=1 WtCom= 1.00D+00 WtEn= 0.00D+00
 Coeff-Com: -0.180D-05 0.397D-05-0.169D-05-0.209D-04-0.992D-04-0.358D-04
 Coeff-Com:  0.316D-03 0.274D-02-0.785D-03-0.735D-02-0.437D-01-0.119D-01
 Coeff-Com:  0.384D+00 0.677D+00
 Coeff:     -0.180D-05 0.397D-05-0.169D-05-0.209D-04-0.992D-04-0.358D-04
 Coeff:      0.316D-03 0.274D-02-0.785D-03-0.735D-02-0.437D-01-0.119D-01
 Coeff:      0.384D+00 0.677D+00
 Gap=     0.301 Goal=   None    Shift=    0.000
 RMSDP=3.26D-08 MaxDP=1.91D-06 DE=-2.92D-11 OVMax= 1.02D-06

 Cycle  15  Pass 1  IDiag  1:
 RMSU=  1.39D-08    CP:  7.27D-01  1.88D+00  9.97D-01  9.85D-01  9.32D-01
                    CP:  1.20D+00  1.18D+00  1.43D+00  1.32D+00  1.12D+00
                    CP:  1.48D+00  1.30D+00  1.33D+00  1.08D+00
 E= -807.818285744560     Delta-E=        0.000000000034 Rises=F Damp=F
 DIIS: error= 3.65D-08 at cycle  15 NSaved=  15.
 NSaved=15 IEnMin=14 EnMin= -807.818285744595     IErMin=15 ErrMin= 3.65D-08
 ErrMax= 3.65D-08  0.00D+00 EMaxC= 1.00D-01 BMatC= 2.48D-13 BMatP= 3.06D-12
 IDIUse=1 WtCom= 1.00D+00 WtEn= 0.00D+00
 Coeff-Com: -0.111D-06 0.264D-06 0.228D-05-0.100D-05-0.235D-04-0.700D-04
 Coeff-Com: -0.149D-03 0.681D-04 0.178D-02 0.218D-02-0.842D-02-0.218D-01
 Coeff-Com: -0.348D-01 0.129D+00 0.933D+00
 Coeff:     -0.111D-06 0.264D-06 0.228D-05-0.100D-05-0.235D-04-0.700D-04
 Coeff:     -0.149D-03 0.681D-04 0.178D-02 0.218D-02-0.842D-02-0.218D-01
 Coeff:     -0.348D-01 0.129D+00 0.933D+00
 Gap=     0.301 Goal=   None    Shift=    0.000
 RMSDP=1.31D-08 MaxDP=1.16D-06 DE= 3.41D-11 OVMax= 4.08D-07

 Cycle  16  Pass 1  IDiag  1:
 RMSU=  4.30D-09    CP:  7.27D-01  1.88D+00  9.97D-01  9.85D-01  9.32D-01
                    CP:  1.20D+00  1.18D+00  1.43D+00  1.32D+00  1.11D+00
                    CP:  1.48D+00  1.31D+00  1.37D+00  1.20D+00  1.11D+00
 E= -807.818285744585     Delta-E=       -0.000000000025 Rises=F Damp=F
 DIIS: error= 1.22D-08 at cycle  16 NSaved=  16.
 NSaved=16 IEnMin=14 EnMin= -807.818285744595     IErMin=16 ErrMin= 1.22D-08
 ErrMax= 1.22D-08  0.00D+00 EMaxC= 1.00D-01 BMatC= 4.99D-14 BMatP= 2.48D-13
 IDIUse=1 WtCom= 1.00D+00 WtEn= 0.00D+00
 Coeff-Com:  0.317D-07-0.592D-07 0.137D-05 0.982D-06-0.656D-05-0.320D-04
 Coeff-Com: -0.982D-04-0.130D-03 0.931D-03 0.167D-02-0.153D-02-0.106D-01
 Coeff-Com: -0.405D-01 0.166D-01 0.476D+00 0.557D+00
 Coeff:      0.317D-07-0.592D-07 0.137D-05 0.982D-06-0.656D-05-0.320D-04
 Coeff:     -0.982D-04-0.130D-03 0.931D-03 0.167D-02-0.153D-02-0.106D-01
 Coeff:     -0.405D-01 0.166D-01 0.476D+00 0.557D+00
 Gap=     0.301 Goal=   None    Shift=    0.000
 RMSDP=2.59D-09 MaxDP=1.37D-07 DE=-2.46D-11 OVMax= 5.84D-08

 Error on total polarization charges =  0.04369
 SCF Done:  E(RCAM-B3LYP) =  -807.818285745     A.U. after   16 cycles
            NFock= 16  Conv=0.26D-08     -V/T= 2.0032
 KE= 8.052681579079D+02 PE=-3.665630482109D+03 EE= 1.169865152890D+03
 SMD-CDS (non-electrostatic) energy       (kcal/mol) =       7.91
 (included in total energy above)
 Leave Link  502 at Tue Nov 25 03:44:46 2025, MaxMem=   536870912 cpu:             244.1 elap:              62.7
 (Enter /apps/t4/rhel9/isv/gaussian/G16C02/g16/l601.exe)
 Copying SCF densities to generalized density rwf, IOpCl= 0 IROHF=0.

 **********************************************************************

            Population analysis using the SCF Density.

 **********************************************************************

 Orbital symmetries:
       Occupied  (A) (A) (A) (A) (A) (A) (A) (A) (A) (A) (A) (A)
                 (A) (A) (A) (A) (A) (A) (A) (A) (A) (A) (A) (A)
                 (A) (A) (A) (A) (A) (A) (A) (A) (A) (A) (A) (A)
                 (A) (A) (A) (A) (A) (A) (A) (A) (A) (A) (A) (A)
                 (A) (A) (A)
       Virtual   (A) (A) (A) (A) (A) (A) (A) (A) (A) (A) (A) (A)
                 (A) (A) (A) (A) (A) (A) (A) (A) (A) (A) (A) (A)
                 (A) (A) (A) (A) (A) (A) (A) (A) (A) (A) (A) (A)
                 (A) (A) (A) (A) (A) (A) (A) (A) (A) (A) (A) (A)
                 (A) (A) (A) (A) (A) (A) (A) (A) (A) (A) (A) (A)
                 (A) (A) (A) (A) (A) (A) (A) (A) (A) (A) (A) (A)
                 (A) (A) (A) (A) (A) (A) (A) (A) (A) (A) (A) (A)
                 (A) (A) (A) (A) (A) (A) (A) (A) (A) (A) (A) (A)
                 (A) (A) (A) (A) (A) (A) (A) (A) (A) (A) (A) (A)
                 (A) (A) (A) (A) (A) (A) (A) (A) (A) (A) (A) (A)
                 (A) (A) (A) (A) (A) (A) (A) (A) (A) (A) (A) (A)
                 (A) (A) (A) (A) (A) (A) (A) (A) (A) (A) (A) (A)
                 (A) (A) (A) (A) (A) (A) (A) (A) (A) (A) (A) (A)
                 (A) (A) (A) (A) (A) (A) (A) (A) (A) (A) (A) (A)
                 (A) (A) (A) (A) (A) (A) (A) (A) (A) (A) (A) (A)
                 (A) (A) (A) (A) (A) (A) (A) (A) (A) (A) (A) (A)
                 (A) (A) (A) (A) (A) (A) (A) (A) (A) (A) (A) (A)
                 (A) (A) (A) (A) (A) (A) (A) (A) (A) (A) (A) (A)
                 (A) (A) (A) (A) (A) (A) (A) (A) (A) (A) (A) (A)
                 (A) (A) (A) (A) (A) (A) (A) (A) (A) (A) (A) (A)
                 (A) (A) (A) (A) (A) (A) (A) (A) (A) (A) (A) (A)
                 (A) (A) (A) (A) (A) (A) (A) (A) (A) (A) (A) (A)
                 (A) (A) (A) (A) (A) (A) (A) (A) (A) (A) (A) (A)
                 (A) (A) (A) (A)
 The electronic state is 1-A.
 Alpha  occ. eigenvalues --  -24.79313 -24.79307 -19.25875 -19.25819 -19.21013
 Alpha  occ. eigenvalues --  -19.20942 -10.41276 -10.41143 -10.37236 -10.37182
 Alpha  occ. eigenvalues --  -10.30429 -10.30366 -10.29108 -10.29100  -1.34240
 Alpha  occ. eigenvalues --   -1.32959  -1.21941  -1.21351  -1.12458  -1.12320
 Alpha  occ. eigenvalues --   -0.98943  -0.89133  -0.87882  -0.78401  -0.76937
 Alpha  occ. eigenvalues --   -0.71207  -0.70421  -0.66046  -0.63815  -0.63249
 Alpha  occ. eigenvalues --   -0.60047  -0.58910  -0.58434  -0.58315  -0.55580
 Alpha  occ. eigenvalues --   -0.55186  -0.54927  -0.54137  -0.52971  -0.51262
 Alpha  occ. eigenvalues --   -0.51225  -0.49042  -0.47589  -0.45627  -0.45563
 Alpha  occ. eigenvalues --   -0.41811  -0.40669  -0.38404  -0.37749  -0.33944
 Alpha  occ. eigenvalues --   -0.33380
 Alpha virt. eigenvalues --   -0.03279  -0.01101   0.03154   0.03502   0.04553
 Alpha virt. eigenvalues --    0.05037   0.06273   0.06544   0.06879   0.07181
 Alpha virt. eigenvalues --    0.08420   0.09395   0.09508   0.10124   0.10324
 Alpha virt. eigenvalues --    0.11741   0.12947   0.13201   0.14032   0.14325
 Alpha virt. eigenvalues --    0.14877   0.16121   0.16656   0.16729   0.17146
 Alpha virt. eigenvalues --    0.19358   0.19700   0.20446   0.20791   0.21327
 Alpha virt. eigenvalues --    0.21932   0.22415   0.23154   0.23561   0.24053
 Alpha virt. eigenvalues --    0.24220   0.24284   0.24765   0.25586   0.26229
 Alpha virt. eigenvalues --    0.26978   0.27250   0.27867   0.29344   0.30205
 Alpha virt. eigenvalues --    0.30516   0.31251   0.31799   0.31967   0.32802
 Alpha virt. eigenvalues --    0.33019   0.33833   0.34015   0.34414   0.35439
 Alpha virt. eigenvalues --    0.35578   0.36799   0.37244   0.38175   0.38374
 Alpha virt. eigenvalues --    0.38737   0.38840   0.40153   0.40868   0.41119
 Alpha virt. eigenvalues --    0.41903   0.42567   0.44277   0.46294   0.46726
 Alpha virt. eigenvalues --    0.47218   0.48371   0.49422   0.51967   0.53461
 Alpha virt. eigenvalues --    0.53885   0.57179   0.58463   0.59086   0.60546
 Alpha virt. eigenvalues --    0.60817   0.62369   0.63824   0.64683   0.66002
 Alpha virt. eigenvalues --    0.67370   0.67575   0.68357   0.68584   0.70704
 Alpha virt. eigenvalues --    0.71333   0.73513   0.74229   0.75598   0.76266
 Alpha virt. eigenvalues --    0.77346   0.77394   0.80612   0.80812   0.83131
 Alpha virt. eigenvalues --    0.84602   0.86992   0.88550   0.91647   0.92939
 Alpha virt. eigenvalues --    0.93465   0.95853   0.97021   0.99645   1.01099
 Alpha virt. eigenvalues --    1.05322   1.06506   1.08470   1.10121   1.12407
 Alpha virt. eigenvalues --    1.13188   1.16582   1.17151   1.18201   1.19294
 Alpha virt. eigenvalues --    1.20970   1.21724   1.22040   1.23027   1.23178
 Alpha virt. eigenvalues --    1.24085   1.25304   1.27100   1.29599   1.34575
 Alpha virt. eigenvalues --    1.34952   1.36200   1.37054   1.42437   1.44216
 Alpha virt. eigenvalues --    1.47024   1.47794   1.48486   1.49045   1.49806
 Alpha virt. eigenvalues --    1.51395   1.55668   1.56220   1.57147   1.58830
 Alpha virt. eigenvalues --    1.59231   1.59316   1.61109   1.61896   1.62160
 Alpha virt. eigenvalues --    1.63556   1.65028   1.68841   1.71138   1.74833
 Alpha virt. eigenvalues --    1.76609   1.78407   1.78637   1.81165   1.84614
 Alpha virt. eigenvalues --    1.86720   1.87666   1.88015   1.94894   1.95989
 Alpha virt. eigenvalues --    1.99515   1.99759   2.01716   2.02002   2.02348
 Alpha virt. eigenvalues --    2.04867   2.07606   2.08232   2.08937   2.15626
 Alpha virt. eigenvalues --    2.16444   2.18247   2.18829   2.20915   2.26362
 Alpha virt. eigenvalues --    2.32703   2.35949   2.37891   2.39831   2.56387
 Alpha virt. eigenvalues --    2.58172   2.64003   2.65237   2.65858   2.66797
 Alpha virt. eigenvalues --    2.70696   2.73491   2.77051   2.78482   2.81387
 Alpha virt. eigenvalues --    2.82579   2.83472   2.85126   2.91054   2.91998
 Alpha virt. eigenvalues --    2.93919   2.97755   2.99087   2.99407   3.05228
 Alpha virt. eigenvalues --    3.07158   3.09681   3.14172   3.14816   3.15821
 Alpha virt. eigenvalues --    3.15934   3.18658   3.24057   3.26236   3.27757
 Alpha virt. eigenvalues --    3.30785   3.34026   3.35667   3.41506   3.42860
 Alpha virt. eigenvalues --    3.42992   3.45442   3.60333   3.63160   3.65557
 Alpha virt. eigenvalues --    3.70392   3.71047   3.77527   3.80945   3.83320
 Alpha virt. eigenvalues --    3.84462   3.85040   3.87499   3.90078   3.91851
 Alpha virt. eigenvalues --    3.97337   4.00672   4.05772   4.08592   4.12489
 Alpha virt. eigenvalues --    4.14073   4.19780   4.25080   4.28334   4.35331
 Alpha virt. eigenvalues --    4.84491   4.89670   4.97809   5.02220   5.10855
 Alpha virt. eigenvalues --    5.13059   5.15840   5.21704   5.23559   5.45028
 Alpha virt. eigenvalues --    5.49463   5.66472   5.67795   5.91281   5.91982
 Alpha virt. eigenvalues --    6.35768   6.40181   6.46224   6.53063   6.71163
 Alpha virt. eigenvalues --    6.86087  23.53516  23.84987  23.87143  23.88288
 Alpha virt. eigenvalues --   23.95785  24.05599  24.08139  24.16028  49.89634
 Alpha virt. eigenvalues --   49.90853  50.03624  50.05877  66.79127  66.83950
          Condensed to atoms (all electrons):
               1          2          3          4          5          6
     1  O    8.165834   0.377287  -0.111520  -0.082841   0.025269   0.068913
     2  C    0.377287   7.792934   0.100819  -1.093872  -0.039125  -0.411157
     3  O   -0.111520   0.100819   7.939383   0.035682   0.057134   0.017453
     4  C   -0.082841  -1.093872   0.035682  14.005446  -0.321510  -1.013676
     5  C    0.025269  -0.039125   0.057134  -0.321510   9.876674   0.325014
     6  C    0.068913  -0.411157   0.017453  -1.013676   0.325014  10.084698
     7  F    0.000120   0.007764   0.000046  -0.008972  -0.186290   0.545455
     8  C    0.002982   0.288382  -0.011226  -0.143784  -2.250155  -1.202788
     9  F   -0.000022  -0.002075   0.000017  -0.016812  -0.051882  -0.259008
    10  C   -0.006706  -0.399277   0.003486  -1.761124   0.623279  -2.253757
    11  C   -0.035613  -0.502769  -0.092852  -3.174532  -1.921389  -0.080470
    12  C   -0.007440  -0.401730   0.021527  -0.481521  -0.392820   0.301189
    13  O   -0.000171  -0.006933  -0.004902  -0.027095  -0.008016   0.002509
    14  O   -0.005068   0.021812  -0.020280  -0.071537   0.003260  -0.010547
    15  H   -0.008966   0.084724   0.252272  -0.057575  -0.023149  -0.000249
    16  H   -0.000149   0.034509  -0.000221  -0.019918   0.392085  -0.053514
    17  H    0.000033   0.008834   0.000195   0.037921  -0.012156  -0.016360
    18  H   -0.000092   0.014558   0.000944   0.011695  -0.007394  -0.000248
               7          8          9         10         11         12
     1  O    0.000120   0.002982  -0.000022  -0.006706  -0.035613  -0.007440
     2  C    0.007764   0.288382  -0.002075  -0.399277  -0.502769  -0.401730
     3  O    0.000046  -0.011226   0.000017   0.003486  -0.092852   0.021527
     4  C   -0.008972  -0.143784  -0.016812  -1.761124  -3.174532  -0.481521
     5  C   -0.186290  -2.250155  -0.051882   0.623279  -1.921389  -0.392820
     6  C    0.545455  -1.202788  -0.259008  -2.253757  -0.080470   0.301189
     7  F    9.170749  -0.258886   0.008378  -0.052954  -0.016136  -0.002057
     8  C   -0.258886   9.984228   0.549339   0.345836  -0.941032  -0.373680
     9  F    0.008378   0.549339   9.171709  -0.186959  -0.010769   0.007497
    10  C   -0.052954   0.345836  -0.186959   9.828258  -0.392482  -0.063106
    11  C   -0.016136  -0.941032  -0.010769  -0.392482  14.074779  -1.020588
    12  C   -0.002057  -0.373680   0.007497  -0.063106  -1.020588   7.664259
    13  O   -0.000021   0.063817   0.000123   0.009739  -0.073601   0.382720
    14  O    0.000021   0.016975   0.000040   0.047229   0.017103   0.109549
    15  H    0.000002   0.000018   0.000000  -0.007788   0.013055   0.013214
    16  H   -0.005424  -0.015185   0.000058  -0.012450   0.030013   0.007700
    17  H    0.000056  -0.053147  -0.005615   0.388358  -0.017657   0.026939
    18  H    0.000000   0.000107   0.000002  -0.022288  -0.050482   0.076478
              13         14         15         16         17         18
     1  O   -0.000171  -0.005068  -0.008966  -0.000149   0.000033  -0.000092
     2  C   -0.006933   0.021812   0.084724   0.034509   0.008834   0.014558
     3  O   -0.004902  -0.020280   0.252272  -0.000221   0.000195   0.000944
     4  C   -0.027095  -0.071537  -0.057575  -0.019918   0.037921   0.011695
     5  C   -0.008016   0.003260  -0.023149   0.392085  -0.012156  -0.007394
     6  C    0.002509  -0.010547  -0.000249  -0.053514  -0.016360  -0.000248
     7  F   -0.000021   0.000021   0.000002  -0.005424   0.000056   0.000000
     8  C    0.063817   0.016975   0.000018  -0.015185  -0.053147   0.000107
     9  F    0.000123   0.000040   0.000000   0.000058  -0.005615   0.000002
    10  C    0.009739   0.047229  -0.007788  -0.012450   0.388358  -0.022288
    11  C   -0.073601   0.017103   0.013055   0.030013  -0.017657  -0.050482
    12  C    0.382720   0.109549   0.013214   0.007700   0.026939   0.076478
    13  O    8.161832  -0.111870  -0.000090   0.000032   0.000515  -0.009063
    14  O   -0.111870   7.938733   0.000988   0.000184  -0.000199   0.252596
    15  H   -0.000090   0.000988   0.383681   0.000099   0.000002   0.000769
    16  H    0.000032   0.000184   0.000099   0.426417  -0.000001   0.000001
    17  H    0.000515  -0.000199   0.000002  -0.000001   0.427336   0.000104
    18  H   -0.009063   0.252596   0.000769   0.000001   0.000104   0.382966
 Mulliken charges:
               1
     1  O   -0.381851
     2  C    0.125315
     3  O   -0.187959
     4  C    0.184024
     5  C   -0.088829
     6  C   -0.043458
     7  F   -0.201852
     8  C   -0.001801
     9  F   -0.204021
    10  C   -0.087294
    11  C    0.195424
    12  C    0.131870
    13  O   -0.379525
    14  O   -0.188990
    15  H    0.348994
    16  H    0.215766
    17  H    0.214842
    18  H    0.349346
 Sum of Mulliken charges =  -0.00000
 Mulliken charges with hydrogens summed into heavy atoms:
               1
     1  O   -0.381851
     2  C    0.125315
     3  O    0.161035
     4  C    0.184024
     5  C    0.126937
     6  C   -0.043458
     7  F   -0.201852
     8  C   -0.001801
     9  F   -0.204021
    10  C    0.127548
    11  C    0.195424
    12  C    0.131870
    13  O   -0.379525
    14  O    0.160356
 Electronic spatial extent (au):  <R**2>=           2717.6752
 Charge=              0.0000 electrons
 Dipole moment (field-independent basis, Debye):
    X=              3.0193    Y=              0.0190    Z=              0.0139  Tot=              3.0194
 Quadrupole moment (field-independent basis, Debye-Ang):
   XX=            -72.3400   YY=            -87.5869   ZZ=            -79.9987
   XY=              0.2407   XZ=              0.2777   YZ=            -11.1718
 Traceless Quadrupole moment (field-independent basis, Debye-Ang):
   XX=              7.6352   YY=             -7.6117   ZZ=             -0.0235
   XY=              0.2407   XZ=              0.2777   YZ=            -11.1718
 Octapole moment (field-independent basis, Debye-Ang**2):
  XXX=            112.0099  YYY=              0.0839  ZZZ=              0.2783  XYY=            -21.4706
  XXY=              1.6060  XXZ=              1.0171  XZZ=             -4.7159  YZZ=             -0.1193
  YYZ=             -0.2855  XYZ=            -25.7427
 Hexadecapole moment (field-independent basis, Debye-Ang**3):
 XXXX=          -1735.6967 YYYY=          -1229.8263 ZZZZ=           -171.4028 XXXY=              3.7950
 XXXZ=              4.1814 YYYX=              2.9127 YYYZ=            -75.7215 ZZZX=              0.4518
 ZZZY=             -9.8329 XXYY=           -516.7490 XXZZ=           -325.7966 YYZZ=           -216.8199
 XXYZ=            -74.8764 YYXZ=              0.1387 ZZXY=             -0.1008
 N-N= 8.826788855657D+02 E-N=-3.665630482206D+03  KE= 8.052681579079D+02
 No NMR shielding tensors so no spin-rotation constants.
 Leave Link  601 at Tue Nov 25 03:44:47 2025, MaxMem=   536870912 cpu:               0.2 elap:               0.2
 (Enter /apps/t4/rhel9/isv/gaussian/G16C02/g16/l701.exe)
 ... and contract with generalized density number  0.
 Compute integral first derivatives.
 D1PCM: PCM CHGder 1st derivatives, ID1Alg=3 FixD1E=F DoIter=F DoCFld=F I1PDM=0.
 GePol: Maximum number of non-zero 1st derivatives   =     187
 Leave Link  701 at Tue Nov 25 03:44:48 2025, MaxMem=   536870912 cpu:               3.8 elap:               1.1
 (Enter /apps/t4/rhel9/isv/gaussian/G16C02/g16/l702.exe)
 L702 exits ... SP integral derivatives will be done elsewhere.
 Leave Link  702 at Tue Nov 25 03:44:48 2025, MaxMem=   536870912 cpu:               0.0 elap:               0.1
 (Enter /apps/t4/rhel9/isv/gaussian/G16C02/g16/l703.exe)
 Integral derivatives from FoFJK, PRISM(SPDF).
 Compute integral first derivatives, UseDBF=F ICtDFT=           0.
 Calling FoFJK, ICntrl=      2127 FMM=F ISym2X=0 I1Cent= 0 IOpClX= 0 NMat=1 NMatS=1 NMatT=0.
 FoFJK:  IHMeth= 1 ICntrl=    2127 DoSepK=T KAlg= 0 I1Cent=           0 FoldK=F
 IRaf=         1 NMat=       1 IRICut=       1 DoRegI=T DoRafI=F ISym2E= 0 IDoP0=0 IntGTp=1.
 FoFCou: FMM=F IPFlag=           0 FMFlag=      100000 FMFlg1=         800
         NFxFlg=           0 DoJE=F BraDBF=F KetDBF=F FulRan=T
         wScrn=  0.000000 ICntrl=      2527 IOpCl=  0 I1Cent=           0 NGrid=           0
         NMat0=    1 NMatS0=      1 NMatT0=    0 NMatD0=    1 NMtDS0=    0 NMtDT0=    0
 Symmetry not used in FoFCou.
 Leave Link  703 at Tue Nov 25 03:45:08 2025, MaxMem=   536870912 cpu:              76.0 elap:              19.3
 (Enter /apps/t4/rhel9/isv/gaussian/G16C02/g16/l716.exe)
 Dipole        = 1.18789853D+00 7.47393687D-03 5.48065324D-03
 ***** Axes restored to original set *****
 -------------------------------------------------------------------
 Center     Atomic                   Forces (Hartrees/Bohr)
 Number     Number              X              Y              Z
 -------------------------------------------------------------------
      1        8          -0.000066274   -0.002539602   -0.000394682
      2        6           0.000830569    0.005132897   -0.000819304
      3        8          -0.001334964   -0.001750681    0.001035506
      4        6          -0.015430555   -0.002121626    0.003885851
      5        6           0.006103005   -0.014493928   -0.001605777
      6        6           0.003917101    0.005359945   -0.001140348
      7        9           0.015364082   -0.000949485   -0.001021280
      8        6           0.007015886    0.002538045   -0.000256198
      9        9           0.005658787    0.014348525   -0.001024811
     10        6          -0.005466201    0.005692353    0.001461903
     11        6          -0.017317286   -0.008693810    0.000486108
     12        6           0.004953005   -0.002924834   -0.000352180
     13        8          -0.002730749    0.000948651    0.000663526
     14        8          -0.002981273   -0.000836214   -0.000922929
     15        1           0.000035580    0.000111694    0.000119710
     16        1           0.001569027   -0.000060175   -0.000059004
     17        1          -0.000235477    0.000309149    0.000132782
     18        1           0.000115736   -0.000070903   -0.000188874
 -------------------------------------------------------------------
 Cartesian Forces:  Max     0.017317286 RMS     0.005479232
 Leave Link  716 at Tue Nov 25 03:45:08 2025, MaxMem=   536870912 cpu:               0.0 elap:               0.1
 (Enter /apps/t4/rhel9/isv/gaussian/G16C02/g16/l103.exe)

 GradGradGradGradGradGradGradGradGradGradGradGradGradGradGradGradGradGrad
 Berny optimization.
 FormGI is forming the generalized inverse of G from B-inverse, IUseBI=4.
 Internal  Forces:  Max     0.020529215 RMS     0.005439161
 Search for a local minimum.
 Step number   1 out of a maximum of   90
 All quantities printed in internal units (Hartrees-Bohrs-Radians)
 RMS Force = .54392D-02 SwitMx=.10000D-02 MixMth= 1
 Mixed Optimization -- RFO/linear search
 Second derivative matrix not updated -- first step.
 ITU=  0
     Eigenvalues ---    0.00914   0.00914   0.01469   0.01469   0.01687
     Eigenvalues ---    0.01706   0.02025   0.02056   0.02059   0.02080
     Eigenvalues ---    0.02151   0.02154   0.02160   0.02568   0.02568
     Eigenvalues ---    0.15990   0.15991   0.16000   0.16000   0.22990
     Eigenvalues ---    0.23964   0.24957   0.24982   0.24983   0.24983
     Eigenvalues ---    0.24991   0.24997   0.24998   0.25000   0.25000
     Eigenvalues ---    0.33582   0.33583   0.35582   0.35591   0.41115
     Eigenvalues ---    0.42015   0.44654   0.45542   0.46011   0.46469
     Eigenvalues ---    0.52972   0.52973   0.53731   0.53731   0.58622
     Eigenvalues ---    0.58623   0.99420   0.99420
 RFO step:  Lambda=-5.48093506D-03 EMin= 9.14192394D-03
 Linear search not attempted -- first point.
 Iteration  1 RMS(Cart)=  0.02824384 RMS(Int)=  0.00020721
 Iteration  2 RMS(Cart)=  0.00026133 RMS(Int)=  0.00006597
 Iteration  3 RMS(Cart)=  0.00000007 RMS(Int)=  0.00006597
 ITry= 1 IFail=0 DXMaxC= 9.56D-02 DCOld= 1.00D+10 DXMaxT= 3.00D-01 DXLimC= 3.00D+00 Rises=F
 Variable       Old X    -DE/DX   Delta X   Delta X   Delta X     New X
                                 (Linear)    (Quad)   (Total)
    R1        2.28872  -0.00223   0.00000  -0.00223  -0.00223   2.28649
    R2        2.52047  -0.00180   0.00000  -0.00304  -0.00304   2.51743
    R3        2.81341   0.00067   0.00000   0.00197   0.00197   2.81538
    R4        1.83679   0.00011   0.00000   0.00021   0.00021   1.83700
    R5        2.66425  -0.01968   0.00000  -0.04381  -0.04383   2.62042
    R6        2.64646  -0.00213   0.00000  -0.00368  -0.00373   2.64273
    R7        2.63733  -0.01918   0.00000  -0.04149  -0.04146   2.59587
    R8        2.04740  -0.00093   0.00000  -0.00258  -0.00258   2.04482
    R9        2.56277  -0.01533   0.00000  -0.02824  -0.02824   2.53453
   R10        2.63423  -0.01338   0.00000  -0.02926  -0.02921   2.60502
   R11        2.56278  -0.01539   0.00000  -0.02835  -0.02835   2.53442
   R12        2.63748  -0.02053   0.00000  -0.04410  -0.04409   2.59339
   R13        2.65843  -0.01723   0.00000  -0.03762  -0.03765   2.62078
   R14        2.04726  -0.00039   0.00000  -0.00107  -0.00107   2.04619
   R15        2.81340  -0.00064   0.00000  -0.00189  -0.00189   2.81151
   R16        2.28872  -0.00248   0.00000  -0.00248  -0.00248   2.28624
   R17        2.52048  -0.00243   0.00000  -0.00411  -0.00411   2.51637
   R18        1.83679   0.00013   0.00000   0.00024   0.00024   1.83704
    A1        2.14682   0.00223   0.00000   0.00891   0.00889   2.15571
    A2        2.16177  -0.00070   0.00000  -0.00255  -0.00258   2.15919
    A3        1.97342  -0.00152   0.00000  -0.00577  -0.00580   1.96762
    A4        1.90821  -0.00019   0.00000  -0.00112  -0.00112   1.90709
    A5        2.02725   0.00043   0.00000  -0.00013  -0.00015   2.02710
    A6        2.15281   0.00196   0.00000   0.00589   0.00588   2.15869
    A7        2.10269  -0.00240   0.00000  -0.00635  -0.00652   2.09617
    A8        2.09138  -0.00285   0.00000  -0.01216  -0.01219   2.07918
    A9        2.11974   0.00013   0.00000  -0.00162  -0.00162   2.11812
   A10        2.07155   0.00273   0.00000   0.01403   0.01402   2.08557
   A11        2.09241   0.00023   0.00000   0.00190   0.00187   2.09428
   A12        2.09526   0.00390   0.00000   0.01335   0.01339   2.10865
   A13        2.09542  -0.00412   0.00000  -0.01515  -0.01519   2.08024
   A14        2.09535  -0.00361   0.00000  -0.01340  -0.01343   2.08192
   A15        2.09541   0.00351   0.00000   0.01239   0.01242   2.10782
   A16        2.09235   0.00010   0.00000   0.00111   0.00108   2.09343
   A17        2.10868  -0.00627   0.00000  -0.02611  -0.02617   2.08251
   A18        2.07097   0.00309   0.00000   0.01293   0.01294   2.08391
   A19        2.10303   0.00318   0.00000   0.01345   0.01347   2.11649
   A20        2.07177   0.00414   0.00000   0.02007   0.01996   2.09173
   A21        2.15281   0.00142   0.00000   0.00370   0.00376   2.15657
   A22        2.05729  -0.00556   0.00000  -0.02369  -0.02364   2.03365
   A23        2.16177  -0.00084   0.00000  -0.00317  -0.00318   2.15859
   A24        1.97345  -0.00204   0.00000  -0.00785  -0.00786   1.96558
   A25        2.14680   0.00288   0.00000   0.01143   0.01142   2.15822
   A26        1.90819  -0.00032   0.00000  -0.00193  -0.00193   1.90626
    D1        0.07396  -0.00002   0.00000  -0.00383  -0.00386   0.07011
    D2       -3.11782   0.00017   0.00000   0.00850   0.00854  -3.10928
    D3        0.71456   0.00036   0.00000   0.01357   0.01359   0.72814
    D4       -2.45874  -0.00018   0.00000  -0.00795  -0.00800  -2.46674
    D5       -2.37635   0.00007   0.00000   0.00073   0.00078  -2.37557
    D6        0.73354  -0.00046   0.00000  -0.02079  -0.02081   0.71273
    D7        3.07410   0.00016   0.00000  -0.00083  -0.00098   3.07312
    D8       -0.03233  -0.00010   0.00000  -0.00930  -0.00936  -0.04169
    D9       -0.03677   0.00060   0.00000   0.01979   0.01955  -0.01721
   D10        3.13999   0.00033   0.00000   0.01133   0.01117  -3.13203
   D11       -3.05363  -0.00015   0.00000  -0.00506  -0.00520  -3.05883
   D12        0.14435  -0.00004   0.00000  -0.00615  -0.00627   0.13808
   D13        0.05495  -0.00066   0.00000  -0.02735  -0.02748   0.02747
   D14       -3.03026  -0.00054   0.00000  -0.02845  -0.02856  -3.05881
   D15       -3.12879  -0.00018   0.00000  -0.00952  -0.00961  -3.13841
   D16       -0.00119   0.00007   0.00000  -0.00126  -0.00138  -0.00257
   D17       -0.02140   0.00003   0.00000  -0.00158  -0.00169  -0.02308
   D18        3.10621   0.00028   0.00000   0.00667   0.00654   3.11275
   D19       -3.13551   0.00003   0.00000   0.00041   0.00041  -3.13510
   D20        0.01978  -0.00018   0.00000  -0.00742  -0.00740   0.01238
   D21       -0.00793   0.00032   0.00000   0.00882   0.00871   0.00079
   D22       -3.13582   0.00011   0.00000   0.00099   0.00090  -3.13492
   D23       -0.00078  -0.00002   0.00000  -0.00129  -0.00125  -0.00203
   D24        3.10664   0.00024   0.00000   0.00817   0.00816   3.11480
   D25       -3.12869  -0.00020   0.00000  -0.00898  -0.00901  -3.13770
   D26       -0.02127   0.00006   0.00000   0.00047   0.00040  -0.02087
   D27       -0.03639   0.00052   0.00000   0.01875   0.01870  -0.01769
   D28        3.05192   0.00062   0.00000   0.02058   0.02048   3.07239
   D29        3.14000   0.00026   0.00000   0.00915   0.00914  -3.13404
   D30       -0.05488   0.00036   0.00000   0.01099   0.01092  -0.04396
   D31       -2.45933   0.00012   0.00000   0.00010   0.00006  -2.45928
   D32        0.73289  -0.00010   0.00000  -0.00913  -0.00915   0.72375
   D33        0.73821  -0.00006   0.00000  -0.00230  -0.00228   0.73593
   D34       -2.35275  -0.00028   0.00000  -0.01153  -0.01148  -2.36423
   D35       -3.11775   0.00012   0.00000   0.00674   0.00676  -3.11098
   D36        0.07398   0.00003   0.00000  -0.00192  -0.00195   0.07203
         Item               Value     Threshold  Converged?
 Maximum Force            0.020529     0.000450     NO 
 RMS     Force            0.005439     0.000300     NO 
 Maximum Displacement     0.095616     0.001800     NO 
 RMS     Displacement     0.028313     0.001200     NO 
 Predicted change in Energy=-2.789139D-03
 Lowest energy point so far.  Saving SCF results.
 GradGradGradGradGradGradGradGradGradGradGradGradGradGradGradGradGradGrad

 Leave Link  103 at Tue Nov 25 03:45:08 2025, MaxMem=   536870912 cpu:               0.1 elap:               0.2
 (Enter /apps/t4/rhel9/isv/gaussian/G16C02/g16/l202.exe)
                          Input orientation:                          
 ---------------------------------------------------------------------
 Center     Atomic      Atomic             Coordinates (Angstroms)
 Number     Number       Type             X           Y           Z
 ---------------------------------------------------------------------
      1          8           0       -0.586913    3.508239    0.437022
      2          6           0       -0.207336    2.532254   -0.169094
      3          8           0        0.740793    2.569833   -1.104135
      4          6           0       -0.783801    1.170453    0.012009
      5          6           0       -2.164143    1.101313    0.124789
      6          6           0       -2.767072   -0.129886    0.212040
      7          9           0       -4.101249   -0.217087    0.317976
      8          6           0       -2.017734   -1.286648    0.185541
      9          9           0       -2.638861   -2.472630    0.265285
     10          6           0       -0.649970   -1.235010    0.085862
     11          6           0       -0.020760   -0.001504    0.008848
     12          6           0        1.466904   -0.014365   -0.005475
     13          8           0        2.124867   -0.803784   -0.643895
     14          8           0        1.994803    0.905149    0.800123
     15          1           0        1.100852    3.471072   -1.159845
     16          1           0       -2.774919    1.994516    0.120639
     17          1           0       -0.081402   -2.156499    0.092139
     18          1           0        2.963951    0.872091    0.731773
 ---------------------------------------------------------------------
                    Distance matrix (angstroms):
                    1          2          3          4          5
     1  O    0.000000
     2  C    1.209959   0.000000
     3  O    2.240218   1.332165   0.000000
     4  C    2.384249   1.489837   2.351261   0.000000
     5  C    2.894553   2.441936   3.479290   1.386666   0.000000
     6  C    4.247312   3.712748   4.617999   2.379970   1.373676
     7  F    5.122771   4.791521   5.764954   3.608926   2.351145
     8  C    5.010133   4.241146   4.913774   2.755004   2.393216
     9  F    6.325407   5.581206   6.222845   4.096028   3.608069
    10  C    4.756648   3.801738   4.222220   2.410315   2.784356
    11  C    3.580804   2.546842   2.903526   1.398472   2.413242
    12  C    4.101550   3.052069   2.900409   2.543575   3.800816
    13  O    5.207271   4.098019   3.675428   3.576055   4.755615
    14  O    3.684179   2.904526   2.823103   2.900371   4.217983
    15  H    2.323772   1.890588   0.972100   3.196561   4.233938
    16  H    2.679333   2.639240   3.767133   2.157645   1.082071
    17  H    5.697696   4.697714   4.944218   3.401235   3.866810
    18  H    4.432244   3.691173   3.345939   3.827887   5.168976
                    6          7          8          9         10
     6  C    0.000000
     7  F    1.341214   0.000000
     8  C    1.378517   2.345748   0.000000
     9  F    2.346854   2.688648   1.341160   0.000000
    10  C    2.391514   3.605742   1.372364   2.349379   0.000000
    11  C    2.756809   4.097856   2.381328   3.609248   1.386858
    12  C    4.241133   5.581223   3.714552   4.793086   2.445296
    13  O    5.011769   6.327237   4.252325   5.128816   2.901417
    14  O    4.908420   6.217212   4.613257   5.759017   3.476388
    15  H    5.459835   6.545863   5.845643   7.165475   5.173430
    16  H    2.126382   2.586365   3.368023   4.471558   3.866066
    17  H    3.366654   4.468948   2.124794   2.582734   1.082798
    18  H    5.841121   7.160627   5.456712   6.541885   4.232907
                   11         12         13         14         15
    11  C    0.000000
    12  C    1.487789   0.000000
    13  O    2.381899   1.209825   0.000000
    14  O    2.347473   1.331605   2.241106   0.000000
    15  H    3.831793   3.689829   4.425970   3.350311   0.000000
    16  H    3.403232   4.695165   5.694111   4.939501   4.340674
    17  H    2.157457   2.644904   2.690578   3.766372   5.885130
    18  H    3.192849   1.889573   2.324883   0.972117   3.715381
                   16         17         18
    16  H    0.000000
    17  H    4.948412   0.000000
    18  H    5.879452   4.342311   0.000000
 Stoichiometry    C8H4F2O4
 Framework group  C1[X(C8H4F2O4)]
 Deg. of freedom    48
 Full point group                 C1      NOp   1
 RotChk:  IX=0 Diff= 9.73D-03
 Largest Abelian subgroup         C1      NOp   1
 Largest concise Abelian subgroup C1      NOp   1
                         Standard orientation:                         
 ---------------------------------------------------------------------
 Center     Atomic      Atomic             Coordinates (Angstroms)
 Number     Number       Type             X           Y           Z
 ---------------------------------------------------------------------
      1          8           0        1.718628    2.556074    0.504409
      2          6           0        1.552895    1.522850   -0.103030
      3          8           0        2.439327    1.025634   -0.964238
      4          6           0        0.316424    0.697152   -0.008305
      5          6           0       -0.883351    1.392353    0.000533
      6          6           0       -2.063502    0.689346    0.003933
      7          9           0       -3.233988    1.344171    0.008763
      8          6           0       -2.064377   -0.689145   -0.004365
      9          9           0       -3.234550   -1.344423   -0.008341
     10          6           0       -0.885663   -1.392001   -0.001625
     11          6           0        0.316892   -0.701234    0.007182
     12          6           0        1.553967   -1.522341    0.101751
     13          8           0        1.724829   -2.551135   -0.511491
     14          8           0        2.431433   -1.028006    0.972876
     15          1           0        3.234640    1.584611   -0.964565
     16          1           0       -0.907609    2.473958   -0.019955
     17          1           0       -0.912220   -2.474314    0.016980
     18          1           0        3.228574   -1.584400    0.974865
 ---------------------------------------------------------------------
 Rotational constants (GHZ):           1.0228230           0.5458451           0.3773790
 Leave Link  202 at Tue Nov 25 03:45:08 2025, MaxMem=   536870912 cpu:               0.0 elap:               0.0
 (Enter /apps/t4/rhel9/isv/gaussian/G16C02/g16/l301.exe)
 Standard basis: 6-311+G(d,p) (5D, 7F)
 Ernie: Thresh=  0.10000D-02 Tol=  0.10000D-05 Strict=F.
 There are   346 symmetry adapted cartesian basis functions of A   symmetry.
 There are   332 symmetry adapted basis functions of A   symmetry.
   332 basis functions,   536 primitive gaussians,   346 cartesian basis functions
    51 alpha electrons       51 beta electrons
       nuclear repulsion energy       889.5574507909 Hartrees.
 IExCor=20419 DFT=T Ex+Corr=CAM-B3LYP ExCW=0 ScaHFX=  1.000000
 ScaDFX=  1.000000  1.000000  1.000000  0.810000 ScalE2=  1.000000  1.000000
 IRadAn=      5 IRanWt=     -1 IRanGd=            0 ICorTp=0 IEmpDi=  4
 HFx  wShort=  0.000000 wLong=  0.330000 cFull=  0.190000 cShort=  0.000000 cLong=  0.460000
 DFx  wShort=  0.000000 wLong=  0.330000 cFull=  0.190000 cShort=  0.000000 cLong=  0.460000
 NAtoms=   18 NActive=   18 NUniq=   18 SFac= 1.00D+00 NAtFMM=   60 NAOKFM=F Big=F
 Integral buffers will be    131072 words long.
 Raffenetti 2 integral format.
 Two-electron integral symmetry is turned on.
 ------------------------------------------------------------------------------
 Polarizable Continuum Model (PCM)
 =================================
 Model                : PCM.
 Atomic radii         : SMD-Coulomb.
 Polarization charges : Total charges.
 Charge compensation  : None.
 Solution method      : On-the-fly selection.
 Cavity type          : VdW (van der Waals Surface) (Alpha=1.000).
 Cavity algorithm     : GePol (No added spheres)
                        Default sphere list used, NSphG=   18.
                        Lebedev-Laikov grids with approx.  5.0 points / Ang**2.
                        Smoothing algorithm: York/Karplus (Gamma=1.0000).
                        Polarization charges: spherical gaussians, with
                                              point-specific exponents (IZeta= 3).
                        Self-potential: point-specific (ISelfS= 7).
                        Self-field    : sphere-specific E.n sum rule (ISelfD= 2).
 1st derivatives      : Analytical E(r).r(x)/FMM algorithm (CHGder, D1EAlg=3).
                        Cavity 1st derivative terms included.
 Solvent              : Water, Eps=  78.355300 Eps(inf)=   1.777849
 ------------------------------------------------------------------------------
 Spheres list:
 ISph  on   Nord     Re0    Alpha      Xe            Ye            Ze
    1   O      1    1.5200  1.000      1.718628      2.556074      0.504409
    2   C      2    1.8500  1.000      1.552895      1.522850     -0.103030
    3   O      3    1.5200  1.000      2.439327      1.025634     -0.964238
    4   C      4    1.8500  1.000      0.316424      0.697152     -0.008305
    5   C      5    1.8500  1.000     -0.883351      1.392353      0.000533
    6   C      6    1.8500  1.000     -2.063502      0.689346      0.003933
    7   F      7    1.7300  1.000     -3.233988      1.344171      0.008763
    8   C      8    1.8500  1.000     -2.064377     -0.689145     -0.004365
[...]
 9,-0.0138176,0.1718454,-1.8842789,-0.1602828,0.1365106,-0.0959306,-0.2
 7663,0.013596,0.1243058,0.0185364,-0.1709789,0.6116704,0.7267767,-0.04
 99065,0.8918629,1.6139537,-0.111378,-0.066654,-0.0976113,0.1685292,-0.
 6367097,-0.6505695,0.0511271,-0.7155796,-1.5288392,0.092925,0.0571355,
 0.0973966,-0.1676891,-0.1812153,-0.2858403,0.0094041,0.0892814,-0.1779
 24,-0.004948,0.0709811,0.0239024,-0.1334576,-0.6031632,0.0042586,0.030
 8509,0.0592115,0.1963476,-0.0546357,0.1216824,0.0641951,-0.0960044,2.6
 443636,-0.1220452,-0.0403027,-0.1135058,1.8136687,1.1637443,-0.0294991
 ,1.1180076,1.5402039,-1.4657208,0.5067181,0.4059353,0.4179518,-1.17575
 57,-0.5532711,0.227844,-0.5220204,-0.9827619,-1.1312813,-0.50057,-0.47
 60062,-0.3238653,-1.1220613,-0.5429838,-0.3273964,-0.5594762,-0.989443
 8,0.4766572,0.030522,-0.0039967,0.0662636,0.4076261,-0.085141,-0.01100
 61,-0.0850323,0.4463776,0.1245067,0.0201871,0.0089178,0.0387546,0.1346
 517,0.0056562,0.0194821,0.016952,0.2163823,0.1511207,0.0240324,-0.0021
 682,0.0049831,0.1035114,0.003208,-0.0150494,-0.0042811,0.2204634,0.474
 9825,0.0781415,0.0698545,0.042152,0.4248097,-0.0353876,0.0755323,-0.03
 36189,0.4309067\Polar=170.457398,2.0761657,171.2428704,-13.5924574,9.1
 774857,92.2835201\Quadrupole=3.0937739,-2.7618954,-0.3318784,4.9739706
 ,4.2116532,-7.323125\PG=C01 [X(C8H4F2O4)]\NImag=1\\0.14161589,-0.17131
 738,0.54706588,-0.14972672,0.29697489,0.25204708,-0.14022766,0.1241671
 0,0.08763693,0.45340009,0.13482204,-0.49493195,-0.23479025,-0.03037009
 ,0.82436356,0.09185779,-0.22338553,-0.21927215,-0.20610217,0.17460490,
 0.45016981,-0.02326095,0.04079158,0.06432955,-0.16532081,-0.02106958,0
 .09688531,0.29056138,0.04086023,0.01142081,-0.04515559,-0.03203900,-0.
 12735180,0.01465481,0.15637287,0.56056822,0.06302509,-0.04744374,-0.04
 809089,0.09052140,0.00538656,-0.15339396,-0.19337985,0.00668298,0.2397
 0228,0.02044764,0.01063074,0.00544922,-0.12128072,-0.04021224,0.003653
 10,-0.01569321,-0.03268187,0.01827538,0.67783005,-0.00484577,-0.051703
 97,-0.01410077,-0.04122601,-0.18348910,0.02943207,-0.01267261,-0.00421
 914,0.00479816,-0.01290679,0.66115382,0.00149105,-0.02633281,0.0130616
 3,0.00404323,0.01637036,-0.07851919,0.02306040,0.02666731,-0.00350815,
 -0.06174233,-0.02712205,0.17005664,-0.00259568,0.00466441,0.00290777,-
 0.01573276,-0.01632618,0.00045645,0.00182804,0.00086412,-0.00141369,-0
 .33590630,-0.03885577,0.02099116,0.71636790,-0.00052482,-0.00220114,0.
 00134218,-0.03255454,0.00053440,0.00040991,-0.00264869,-0.00570779,0.0
 0291625,0.02731089,-0.12891087,-0.00447026,-0.03196115,0.75694062,-0.0
 0006787,-0.00198878,-0.00064751,0.00552771,0.00517225,0.00226499,0.000
 24964,0.00100563,0.00070091,0.01841451,0.00222320,-0.06303571,-0.03991
 226,-0.02593443,0.13732561,0.00114801,0.00340614,0.00029017,-0.0064461
 6,-0.00440754,0.00155211,0.00105852,0.00061688,-0.00077571,-0.01679524
 ,-0.03095578,0.00298618,-0.15975487,-0.11768959,0.01057544,0.68650145,
 0.00123883,0.00017579,-0.00040421,-0.00065527,0.00362645,0.00040122,-0
 .00045371,-0.00045055,-0.00012854,-0.09468653,0.03530882,0.00921489,-0
 .03055167,-0.32444641,0.01180585,0.00140185,0.73612305,-0.00038633,0.0
 0124608,-0.00040908,0.00105322,0.00035752,0.00746081,-0.00105452,-0.00
 123910,0.00000335,0.00807502,0.00007160,0.00103108,0.00581215,0.017662
 70,-0.06689398,-0.04025828,-0.01870033,0.14809420,-0.00015697,-0.00310
 853,-0.00052361,0.00053453,0.00633981,-0.00059744,-0.00155386,-0.00214
 490,0.00122351,0.00223904,-0.00402943,-0.00065617,-0.04198250,-0.00907
 215,0.00370650,-0.31585879,-0.01146582,0.02052027,0.40698034,0.0000544
 0,-0.00056726,-0.00009628,-0.00108728,0.00151478,-0.00011729,-0.000419
 62,-0.00070883,0.00039366,0.00319074,-0.00751069,-0.00013666,-0.046931
 00,0.00414287,0.00341738,-0.01649603,-0.07485072,0.00238026,0.02327551
 ,0.06929933,-0.00009040,0.00019718,0.00006449,0.00003327,-0.00057786,0
 .00013927,0.00004268,0.00006332,-0.00010204,-0.00017702,0.00099906,0.0
 0754347,0.00530743,0.00111460,0.00600171,0.02053143,0.00211708,-0.0426
 5149,-0.02898304,-0.00315165,0.02571806,0.00057447,0.00373842,0.000115
 39,-0.00568334,-0.00478998,0.00044671,0.00157293,0.00057848,-0.0008655
 1,-0.06348294,0.04022908,0.00546321,0.07867466,0.03578937,-0.00582511,
 -0.17253822,0.04956725,0.00703284,-0.05832933,0.03607145,0.00414719,0.
 72783083,-0.00069590,0.00313963,0.00076541,-0.00074033,-0.00737673,0.0
 0040316,0.00172398,0.00208250,-0.00115861,0.03956350,-0.01498374,-0.00
 325104,-0.03219385,-0.05693289,0.00466959,0.16001700,-0.26609273,-0.00
 658659,-0.00896915,0.00436533,0.00066917,-0.01694225,0.69473938,0.0001
 2674,-0.00056482,0.00006648,0.00021947,0.00085974,-0.00082119,-0.00009
 137,-0.00005480,0.00014977,0.00299156,-0.00200946,-0.00155383,-0.00397
 734,-0.00052071,0.00448750,0.00303638,0.00120282,-0.06995113,0.0052365
 9,-0.00249053,0.00836398,-0.04237822,-0.01579090,0.14816986,0.00005953
 ,-0.00273816,-0.00027239,0.00217337,0.00515441,-0.00062634,-0.00125886
 ,-0.00126146,0.00085181,-0.00023638,-0.00521258,-0.00014657,-0.0036494
 8,0.00232724,0.00037019,0.00409329,0.00827289,0.00004454,0.00853861,0.
 00227279,-0.00098992,-0.12484165,-0.10137380,0.00930325,0.14202965,0.0
 0008066,-0.00487725,-0.00045348,0.00354934,0.00976222,-0.00121579,-0.0
 0242974,-0.00248392,0.00169117,-0.00658414,-0.00556228,0.00015465,0.01
 124524,0.00064786,-0.00109472,-0.03671262,-0.05826125,0.00480682,0.003
 44438,0.00603783,-0.00052232,-0.09636040,-0.26632509,0.01430331,0.1410
 2012,0.33488372,-0.00001459,0.00029491,0.00007925,-0.00043460,-0.00098
 527,-0.00057245,0.00028537,0.00023202,-0.00014960,0.00010659,0.0007291
 8,-0.00102946,0.00063286,-0.00018598,0.00591743,0.00147000,0.00113352,
 0.00856194,-0.00113035,-0.00050433,-0.00431286,0.00910701,0.01484741,-
 0.04222687,-0.01317820,-0.02018654,0.02508876,0.00068701,-0.00159574,0
 .00065896,0.00135758,0.00783172,-0.00047790,-0.00121401,-0.00052124,0.
 00085708,0.06535610,-0.02393494,-0.00665268,-0.05367019,-0.03277223,0.
 00402220,-0.03326340,0.08536991,-0.00029563,0.00502485,-0.00149691,0.0
 0016298,-0.35182238,-0.03224194,0.02216386,-0.02422043,-0.01702851,0.0
 0234480,0.72706831,-0.00097592,-0.00413683,-0.00067738,0.00746964,0.00
 341883,-0.00044688,-0.00149807,-0.00020405,0.00064795,0.03020396,-0.06
 100708,-0.00028848,-0.03521164,-0.02353832,0.00309562,0.01741063,0.055
 09310,-0.00325549,0.00739813,-0.00802243,-0.00043760,0.05498242,-0.131
 75566,0.00026012,-0.05483293,-0.01369915,0.00458467,-0.03609322,0.7470
 3939,-0.00028612,0.00163389,-0.00081331,0.00091621,0.00050771,0.006515
 80,-0.00060514,-0.00042901,-0.00017741,-0.00528610,0.00355286,0.008188
 37,0.00566144,0.00393463,-0.00056600,0.00155984,-0.00846152,0.00445243
 ,0.00033540,0.00061399,0.00588643,0.01809232,0.00506371,-0.06743196,0.
 00414098,0.00197357,0.00608908,-0.03553538,-0.02197226,0.13635662,-0.0
 0193703,-0.00648728,-0.00265868,0.01593046,-0.00618842,0.00243045,-0.0
 0198848,-0.00101223,0.00033174,-0.17897603,0.11179431,0.00085701,-0.03
 747973,0.02233290,0.00299759,0.00650783,0.00874528,-0.00118489,-0.0089
 5070,-0.00130502,0.00045675,-0.02032930,-0.02958618,0.00209204,-0.0060
 8861,-0.00016080,0.00098247,-0.16623201,-0.11385258,0.01415540,0.65892
 375,-0.00251478,0.00030417,0.00006871,0.00946421,-0.02851418,-0.000221
 69,0.00199637,0.00052221,-0.00160650,0.05703801,-0.25251809,0.01064692
 ,0.07615475,0.04257068,-0.00679022,0.00845623,-0.08541897,0.00255971,-
 0.00260525,0.00328390,0.00017798,-0.09416317,0.03810991,0.00191145,0.0
 0707620,0.00107322,0.00019529,-0.04737022,-0.29827170,0.01063379,0.002
 00962,0.68826718,-0.00017533,0.00146802,0.00210414,-0.00439319,-0.0031
 1058,-0.00005136,0.00164927,0.00146186,-0.00094009,0.00045461,0.005221
 53,-0.06223486,0.00240764,0.00005545,0.00744436,-0.00101088,-0.0002632
 0,-0.00115598,0.00120575,-0.00000068,-0.00111298,0.00133289,0.00177209
 ,0.00177413,0.00159077,0.00113270,0.00729259,0.01351435,0.01434032,-0.
 06343652,-0.01546893,0.00045865,0.16182603,-0.00044680,-0.00717697,-0.
 00091705,0.00452945,0.01236164,-0.00213411,-0.00409404,-0.00221843,0.0
 0094395,-0.01932670,0.00970614,0.00636958,0.00861064,0.00448740,-0.001
 50432,-0.00913302,-0.00327937,0.00051331,0.01180447,0.00093558,-0.0006
 5057,0.00000632,-0.00729358,0.00088379,0.00334215,0.00514606,-0.000356
 33,-0.02044529,-0.01459685,-0.00268499,-0.20719331,-0.00325729,0.00067
 568,0.71770323,-0.00057075,0.00145605,0.00113801,0.00627319,-0.0037917
 4,-0.00179888,-0.00218621,0.00194307,-0.00079963,0.02543171,0.00723893
 ,-0.00125905,0.00415438,-0.00397837,-0.00027755,0.00081245,-0.00387090
 ,0.00031004,-0.00063066,0.00019528,0.00001055,-0.00358967,-0.00297226,
 0.00055526,-0.00229592,-0.00122996,0.00015615,-0.03054227,0.00497139,0
 .00087680,-0.00587771,-0.10018851,0.00572238,-0.12989250,0.57815366,0.
 00030613,-0.00112769,0.00022966,0.00088343,-0.00042065,-0.00362672,-0.
 00144464,0.00129967,-0.00134726,-0.00041123,-0.00427044,-0.00047971,-0
 .00003292,0.00057236,0.00662870,0.00049243,0.00044476,-0.00082047,-0.0
 0022676,-0.00011701,-0.00067471,0.00029787,0.00062176,0.00753426,0.000
 11931,-0.00006720,0.00008086,0.00512480,0.00147162,0.00265832,-0.01098
 474,0.01112924,-0.07598675,-0.10319063,0.26870769,0.43177584,0.0000665
 2,0.00342616,0.00044264,-0.00162124,-0.00628698,0.00171541,0.00119969,
 0.00135511,-0.00104100,-0.00328419,-0.00549264,-0.00008760,-0.00437311
 ,0.00038054,-0.00095714,0.00373209,0.00231254,-0.00021715,-0.00492951,
 -0.00045669,0.00044168,0.00190533,0.00279169,-0.00155317,-0.00157216,-
 0.00237308,0.00027854,-0.00082657,0.00367638,0.00155325,-0.03259938,0.
 03666959,0.02674669,-0.29601781,0.20167478,0.16278318,0.29960101,0.000
 05916,-0.00156553,-0.00022587,-0.00015854,0.00277724,-0.00094385,0.000
 10429,-0.00088070,0.00067203,-0.00164065,0.00204275,0.00099832,0.00136
 621,0.00083184,0.00061330,-0.00222893,-0.00014322,-0.00003474,0.002389
 42,0.00023744,-0.00019784,0.00093880,-0.00069836,0.00078028,0.00074812
 ,0.00095567,-0.00001252,-0.00154297,-0.00426343,-0.00024273,0.02013729
 ,0.00446503,-0.01424356,0.21325128,-0.32352730,-0.19684392,-0.24594137
 ,0.37752897,-0.00001881,-0.00084904,-0.00025145,-0.00041000,0.00193898
 ,0.00005187,0.00019483,-0.00059954,0.00077124,0.00187642,0.00322272,0.
 00166670,0.00071531,-0.00108867,-0.00069959,-0.00104988,-0.00007538,0.
 00017898,0.00099067,0.00011043,-0.00003902,-0.00013082,-0.00078239,-0.
 00025952,0.00045438,0.00068395,-0.00005059,-0.00224919,-0.00230388,-0.
 00033133,0.01519861,-0.01503319,0.01008924,0.17405643,-0.19613521,-0.2
 3510802,-0.19984505,0.28315322,0.26364682,0.00003433,0.00207262,0.0003
 9486,-0.00070318,-0.00388332,-0.00039315,0.00005136,0.00350827,-0.0025
 1343,0.00038093,-0.00237328,-0.00197170,-0.00113829,-0.00056264,0.0008
 2455,0.00298831,0.00005817,-0.00029763,-0.00386793,-0.00022157,0.00018
 525,0.00012705,0.00134595,0.00143952,-0.00186950,-0.00212780,0.0003449
 3,-0.00544984,0.00414774,-0.00056272,-0.02820478,-0.03359967,-0.027783
 08,-0.16502482,-0.05163649,-0.04671183,0.03878860,0.00521287,0.0037685
 9,0.64363903,0.00055943,0.00036793,-0.00047790,-0.00338560,-0.00137704
 ,0.00233377,0.00577811,-0.00331204,0.00356883,0.00086254,-0.00207493,-
 0.00093438,-0.00153831,-0.00029314,0.00059219,0.00124142,0.00082743,-0
 .00016386,-0.00150465,-0.00010657,0.00003096,0.00017694,0.00082416,0.0
 0036415,-0.00036709,-0.00052901,0.00007312,0.00030733,0.00143045,0.000
 08454,-0.01152384,0.00119891,-0.00904508,-0.04016384,-0.15184502,-0.07
 790771,0.00533753,-0.06003229,-0.07762581,0.03227508,0.24706238,-0.000
 16098,0.00100347,0.00067687,0.00054670,-0.00066603,-0.00146259,-0.0030
 1476,0.00344888,-0.00190675,0.00110152,-0.00055764,-0.00068946,-0.0006
 8608,-0.00043542,-0.00015927,0.00093056,0.00026086,-0.00001366,-0.0012
 7837,-0.00005990,0.00008272,0.00040844,0.00040663,-0.00033123,-0.00058
 855,-0.00064561,0.00004512,-0.00133658,0.00189010,0.00082355,-0.007478
 76,-0.01073546,0.00366636,-0.03653795,-0.07435731,-0.12901452,0.006410
 45,-0.07734842,-0.03869497,0.01531848,0.17582773,0.19990404,0.00316354
 ,0.00066620,-0.00762621,-0.02088318,-0.03472073,0.01081697,-0.08232359
 ,-0.13182668,0.02396445,0.00021062,-0.00058511,0.00506667,0.00031765,0
 .00024575,0.00007855,-0.00001098,-0.00025111,-0.00035241,0.00009844,0.
 00003620,0.00001069,0.00006611,0.00008748,0.00002316,-0.00005622,-0.00
 012121,0.00003666,-0.00015524,-0.00012268,-0.00027494,-0.00015773,0.00
 013311,-0.00012959,0.00021599,-0.00108603,0.00046066,-0.00007396,0.000
 11285,0.00002701,-0.00032731,0.00038423,-0.00040391,0.09986902,0.00474
 054,-0.00338234,-0.00430161,-0.00808436,0.00122602,0.00690009,-0.16345
 815,-0.43112348,0.02410921,-0.00033365,0.00193501,-0.00105342,0.000063
 82,0.00006509,0.00042831,-0.00020676,0.00000852,0.00013194,0.00011159,
 0.00000742,-0.00006128,-0.00027895,-0.00009912,0.00004307,0.00016821,0
 .00030037,-0.00005060,0.00027095,0.00018773,0.00002578,0.00018383,-0.0
 0001767,-0.00027647,0.00019868,-0.00026320,-0.00026788,-0.00015506,0.0
 0015089,0.00010327,-0.00024227,0.00032575,-0.00014105,0.16695222,0.430
 61135,-0.00592483,-0.00081693,0.00112119,0.02024673,0.03658122,-0.0052
 7972,0.01218881,-0.00883139,-0.03132876,0.00511523,-0.00217201,-0.0000
 8314,0.00056735,0.00146892,-0.00026387,0.00034497,-0.00051524,-0.00004
 765,0.00011336,0.00015381,0.00000866,-0.00009060,0.00014937,-0.0000095
 7,-0.00008642,-0.00015270,0.00001378,-0.00001664,0.00010077,0.00000684
 ,-0.00035717,-0.00037805,0.00029268,-0.00008774,0.00025238,-0.00006427
 ,0.00003490,-0.00008164,-0.00004186,-0.00013146,-0.00015795,-0.0000676
 8,-0.03184707,-0.02555496,0.03574908,0.00088822,-0.00040247,-0.0002131
 0,-0.00035572,0.00127913,0.00032427,0.00023947,0.00009540,-0.00030616,
 -0.01078558,0.02450590,-0.00011713,-0.14887580,0.13558790,0.00145170,0
 .01126139,-0.01357732,0.00031377,0.00173087,0.00129644,-0.00050383,-0.
 00170659,-0.00162060,0.00058089,0.00036869,-0.00154142,-0.00002119,-0.
 00027720,-0.00073919,-0.00007492,-0.00475334,-0.00144380,0.00046209,0.
 00076621,0.00105054,-0.00007843,-0.00082097,0.00018289,0.00031466,-0.0
 0024775,-0.00015640,-0.00004943,-0.00003728,-0.00002219,-0.00002724,0.
 15252769,-0.00086563,0.00014663,0.00057318,-0.00084247,-0.00115748,-0.
 00048119,0.00010446,0.00028261,-0.00011985,-0.00216274,0.00723040,-0.0
 0004708,0.13585975,-0.25996950,0.00277872,0.01605671,-0.01767397,0.000
 21786,0.00148503,0.00220105,-0.00044470,-0.00267380,-0.00176689,0.0004
 6604,0.00037119,-0.00148015,-0.00001113,-0.00099519,-0.00009932,0.0000
 0225,-0.00153902,0.00115165,0.00024631,-0.00006897,0.00038145,-0.00009
 162,-0.00019030,0.00000453,0.00009928,-0.00001848,-0.00002848,0.000018
 69,-0.00000903,0.00004020,-0.00006427,-0.14456897,0.27074072,-0.000047
 70,-0.00049108,0.00028031,-0.00040624,-0.00136759,-0.00432901,0.000638
 45,0.00067359,-0.00019403,0.00088292,-0.00036354,0.00381616,0.00108842
 ,0.00338083,-0.03696773,-0.00129890,0.00088375,0.00658240,-0.00022857,
 -0.00027198,-0.00458511,0.00005734,0.00057793,0.00564703,-0.00005085,0
 .00012619,-0.00031542,0.00035002,0.00026699,-0.00159209,0.00108574,-0.
 00003152,0.00561232,-0.00013293,-0.00025414,0.00079920,-0.00012488,-0.
 00000263,-0.00023626,0.00006734,0.00008118,-0.00003454,0.00017712,-0.0
 0009165,0.00003949,-0.00204858,-0.00312789,0.02537458,-0.00015161,-0.0
 0049077,-0.00018490,0.00085181,-0.00007417,0.00011414,-0.00013724,-0.0
 0007151,0.00002150,-0.00087712,-0.00327511,0.00073650,-0.00082444,-0.0
 0080827,-0.00000409,-0.00333195,-0.00187448,0.00069575,-0.00160326,0.0
 0124928,0.00008232,-0.01190455,0.02632931,-0.00014588,0.00313001,0.000
 83579,-0.00048896,-0.14187412,0.13255722,-0.00064275,0.01238718,-0.012
 40939,0.00002178,-0.00069871,-0.00066490,-0.00011318,-0.00017176,-0.00
 042907,-0.00034335,0.00025292,0.00002738,0.00016933,0.00000328,0.00002
 045,0.00000074,0.00005678,0.00004832,0.00001556,0.14486553,-0.00014403
 ,-0.00068907,-0.00018844,0.00104944,0.00034183,-0.00006631,-0.00020652
 ,-0.00014190,0.00008912,-0.00309557,-0.00269471,0.00080677,-0.00055470
 ,0.00037364,-0.00002634,-0.00089144,-0.00008079,0.00027260,-0.00066014
 ,0.00049893,0.00003208,-0.00317282,0.00559068,0.00031043,0.00064474,0.
 00076519,-0.00026956,0.13218111,-0.26731117,0.00215130,0.01406946,-0.0
 1603612,-0.00006670,0.00149928,-0.00072927,-0.00100750,0.00016518,0.00
 124442,0.00032811,-0.00000536,0.00015800,0.00020034,-0.00000265,0.0000
 2029,0.00000002,0.00008465,-0.00000378,-0.00000270,-0.14091715,0.27872
 383,0.00005260,0.00021659,-0.00021450,0.00018857,0.00006623,0.00074955
 ,-0.00006852,-0.00000889,-0.00002967,0.00072348,0.00014510,0.00559454,
 -0.00043977,-0.00027354,-0.00151731,0.00071789,0.00093200,0.00558299,0
 .00013336,-0.00013813,-0.00032248,0.00244145,-0.00186094,0.00647145,-0
 .00074084,-0.00047600,-0.00454774,-0.00101866,0.00268336,-0.03662008,-
 0.00237351,0.00241060,0.00390420,0.00080275,-0.00041359,-0.00439709,0.
 00052088,-0.00019086,0.00024667,-0.00093900,-0.00034150,-0.00009254,-0
 .00000462,0.00002267,-0.00001265,-0.00000358,-0.00001170,0.00011326,-0
 .00001019,-0.00257360,0.02505002,0.00009154,-0.00024608,-0.00010282,-0
 .00052252,0.00054048,0.00007840,0.00033365,-0.00047404,0.00027944,0.00
 018003,0.00013039,0.00030919,0.00018426,0.00013210,0.00005222,-0.00015
 827,-0.00017145,-0.00001403,0.00028169,0.00003174,-0.00000690,-0.00011
 940,-0.00020133,0.00004873,0.00005800,0.00011814,0.00003501,-0.0000431
 9,0.00007696,-0.00046179,0.00114121,-0.00163452,-0.00110053,-0.0245979
 7,-0.01042395,-0.00727346,0.00099742,0.00743835,0.00645019,-0.47942911
 ,0.01168974,0.02664989,0.00008083,0.00007113,-0.00004293,0.00002093,0.
 00000915,-0.00002425,0.00002725,-0.00004348,0.00001772,0.50147365,0.00
 003970,-0.00002154,0.00000940,-0.00082943,0.00042469,-0.00046252,0.000
 17122,-0.00023522,0.00030092,0.00007210,-0.00023513,0.00003603,-0.0002
 4844,-0.00012854,0.00031000,0.00016937,0.00012636,-0.00003701,-0.00025
 317,-0.00001764,-0.00001873,-0.00010116,0.00015188,0.00037455,0.000026
 03,0.00002197,-0.00004036,0.00017436,0.00016826,0.00005070,-0.00173960
 ,0.00001837,-0.00487305,-0.03963825,-0.00194327,-0.00212548,0.00310662
 ,0.00087207,0.00485314,0.04605020,-0.03259650,-0.01810985,0.00010719,0
 .00000718,0.00001865,-0.00001049,0.00000036,0.00001427,-0.00005291,-0.
 00002998,-0.00018781,-0.00704334,0.03341669,0.00004027,-0.00003462,-0.
 00003220,-0.00007067,0.00007276,-0.00002374,0.00013450,0.00012825,-0.0
 0015893,0.00049712,0.00020042,0.00017493,-0.00008593,0.00005118,-0.000
 02026,-0.00009376,0.00015164,-0.00000474,0.00015889,0.00001492,-0.0000
 0810,0.00034760,-0.00051575,-0.00007915,-0.00019515,-0.00005801,0.0000
 3617,-0.00161638,0.00004043,-0.00000875,-0.00008112,-0.00539572,0.0009
 1248,-0.03604885,-0.00243390,0.00181270,0.00289837,0.00415144,-0.00093
 891,0.05896049,-0.01630227,-0.03273146,-0.00002319,0.00003457,-0.00003
 255,-0.00000380,-0.00000289,-0.00001059,0.00007569,0.00001038,0.000041
 37,-0.02489409,0.01988715,0.03107172\\0.00000882,-0.00000417,-0.000001
 65,-0.00002012,-0.00001021,0.00001862,0.00000046,0.00000646,0.00000265
 ,-0.00004631,0.00001962,0.00000803,0.00004353,-0.00000364,0.00000432,-
 0.00001775,-0.00001545,0.00000245,0.00003521,0.00000947,0.00000361,-0.
 00001666,-0.00001030,0.00000371,0.00002220,0.00002486,-0.00000881,0.00
 001592,0.00003575,-0.00001005,-0.00002499,-0.00004861,-0.00000542,-0.0
 0000702,-0.00001062,-0.00000931,0.00000132,0.00000623,-0.00000231,0.00
 000374,-0.00000279,-0.00000325,0.00000092,0.00000725,0.00000072,-0.000
 00254,0.00000056,0.00000886,-0.00000355,-0.00000182,-0.00000872,0.0000
 0685,-0.00000258,-0.00000345\\\@
 The archive entry for this job was punched.


 SI MONUMENTUM REQUIRIS, CIRCUMSPICE
     -- FROM SIR CHRISTOPHER WREN'S TOMBSTONE
 Job cpu time:       0 days  0 hours 35 minutes 31.4 seconds.
 Elapsed time:       0 days  0 hours  9 minutes  0.7 seconds.
 File lengths (MBytes):  RWF=    244 Int=      0 D2E=      0 Chk=     15 Scr=      1
 Normal termination of Gaussian 16 at Tue Nov 25 04:01:52 2025.
